ITEM: TIMESTEP
5000000
ITEM: NUMBER OF ATOMS
896
ITEM: BOX BOUNDS pp pp ff
-1.7300000000000001e+01 1.6899999999999999e+01
-1.8300000000000001e+01 1.7800000000000001e+01
-5.0000000000000000e+01 5.0000000000000000e+01
ITEM: ATOMS q 
0 
0 
0 
0 
0 
0 
0 
0 
0 
0 
0 
0 
0 
0 
0 
0 
0 
0 
0 
0 
0 
0 
0 
0 
0 
0 
0 
0 
0 
0 
0 
0 
0 
0 
0 
0 
0 
0 
0 
0 
0 
0 
0 
0 
0 
0 
0 
0 
0 
0 
0 
0 
0 
0 
0 
0 
0 
0 
0 
0 
0 
0 
0 
0 
0 
0 
0 
0 
0 
0 
0 
0 
0 
0 
0 
0 
0 
0 
0 
0 
0 
0 
0 
0 
0 
0 
0 
0 
0 
0 
0 
0 
0 
0 
0 
0 
0 
0 
0 
0 
0 
0 
0 
0 
0 
0 
0 
0 
0 
0 
0 
0 
0 
0 
0 
0 
0 
0 
0 
0 
0 
0 
0 
0 
0 
0 
0 
0 
0 
0 
0 
0 
0 
0 
0 
0 
0 
0 
0 
0 
0 
0 
0 
0 
0 
0 
0 
0 
0 
0 
0 
0 
0 
0 
0 
0 
0 
0 
0 
0 
0 
0 
0 
0 
0 
0 
0 
0 
0 
0 
0 
0 
0 
0 
0 
0 
0 
0 
0 
0 
0 
0 
0 
0 
0 
0 
0 
0 
0 
0 
0 
0 
0 
0 
0 
0 
0 
0 
0 
0 
0 
0 
0 
0 
0 
0 
0 
0 
0 
0 
0 
0 
0 
0 
0 
0 
0 
0 
0 
0 
0 
0 
0 
0 
0 
0 
0 
0 
0 
0 
0 
0 
0 
0 
0 
0 
0 
0 
0 
0 
0 
0 
0 
0 
0 
0 
0 
0 
0 
0 
0 
0 
0 
0 
0 
0 
0 
0 
0 
0 
0 
0 
0 
0 
0 
0 
0 
0 
0 
0 
0 
0 
0 
0 
0 
0 
0 
0 
0 
0 
0 
0 
0 
0 
0 
0 
0 
0 
0 
0 
0 
0 
0 
0 
0 
0 
0 
0 
0 
0 
0 
0 
0 
0 
0 
0 
0 
0 
0 
0 
0 
0 
0 
0 
0 
0 
0 
0 
0 
0 
0 
0 
0 
0 
0 
0 
0 
0 
0 
0 
0 
0 
0 
0 
0 
0 
0 
0 
0 
0 
0 
0 
0 
0 
0 
0 
0 
0 
0 
0 
0 
0 
0 
0 
0 
0 
0 
0 
0 
0 
0 
0 
0 
0 
0 
0 
0 
0 
0 
0 
0 
0 
0 
0 
0 
0 
0 
0 
0 
0 
0 
0 
0 
0 
0 
0 
0 
0 
0 
0 
0 
0 
0 
0 
0 
0 
0 
0 
0 
0 
0 
0 
0 
0 
0 
0 
0 
0 
0 
0 
0 
0 
0 
0 
0 
0 
0 
0 
0 
0 
0 
0 
0 
0 
0 
0 
0 
0 
0 
0 
0 
0 
0 
0 
0 
0 
0 
0 
0 
0 
0 
0 
0 
0 
0 
0 
0 
0 
0 
0 
0 
0 
0 
0 
0 
0 
0 
0 
0 
0 
0 
0 
0 
0 
0 
0 
0 
0 
0 
0 
0 
0 
0 
0 
0 
0 
0 
0 
0 
0 
0 
0 
0 
0 
0 
0 
0 
0 
0 
0 
0 
0 
0 
0 
0 
0 
0 
0 
0 
0 
0 
0 
0 
0 
0 
0 
0 
0 
0 
0 
0 
0 
0 
0 
0 
0 
0 
0 
0 
0 
0 
0 
0 
0 
0 
0 
0 
0 
0 
0 
0 
0 
0 
0 
0 
0 
0 
0 
0 
0 
0 
0 
0 
0 
0 
0 
0 
0 
0 
0 
0 
0 
0 
0 
0 
0 
0 
0 
0 
0 
0 
0 
0 
0 
0 
0 
0 
0 
0 
0 
0 
0 
0 
0 
0 
0 
0 
0 
0 
0 
0 
0 
0 
0 
0 
0 
0 
0 
0 
0 
0 
0 
0 
0 
0 
0 
0 
0 
0 
0 
0 
0 
0 
0 
0 
0 
0 
0 
0 
0 
0 
0 
0 
0 
0 
0 
0 
0 
0 
0 
0 
0 
0 
0 
0 
0 
0 
0 
0 
0 
0 
0 
0 
0 
0 
0 
0 
0 
0 
0 
0 
0 
0 
0 
0 
0 
0 
0 
0 
0 
0 
0 
0 
0 
0 
0 
0 
0 
0 
0 
0 
0 
0 
0 
0 
0 
0 
0 
0 
0 
0 
0 
0 
0 
0 
0 
0 
0 
0 
0 
0 
0 
0 
0 
0 
0 
0 
0 
0 
0 
0 
0 
0 
0 
0 
0 
0 
0 
0 
0 
0 
0 
0 
0 
0 
0 
0 
0 
0 
0 
0 
0 
0 
0 
0 
0 
0 
0 
0 
0 
0 
0 
0 
0 
0 
0 
0 
0 
0 
0 
0 
0 
0 
0 
0 
0 
0 
0 
0 
0 
0 
0 
0 
0 
0 
0 
0 
0 
0 
0 
0 
0 
0 
0 
0 
0 
0 
0 
0 
0 
0 
0 
0 
0 
0 
0 
0 
0 
0 
0 
0 
0 
0 
0 
0 
0 
0 
0 
0 
0 
0 
0 
0 
0 
0 
0 
0 
0 
0 
0 
0 
0 
0 
0 
0 
0 
0 
0 
0 
0 
0 
0 
0 
0 
0 
0 
0 
0 
0 
0 
0 
0 
0 
0 
0 
0 
0 
0 
0 
0 
0 
0 
0 
0 
0 
0 
0 
0 
0 
0 
0 
0 
0 
0 
0 
0 
0 
0 
0 
0 
0 
0 
0 
0 
0 
0 
0 
0 
0 
0 
0 
0 
0 
0 
0 
0 
0 
0 
0 
0 
0 
0 
0 
0 
0 
0 
0 
0 
0 
0 
0 
0 
0 
0 
0 
0 
0 
0 
0 
0 
0 
0 
0 
0 
0 
0 
0 
0 
0 
0 
0 
0 
0 
0 
0 
0 
ITEM: TIMESTEP
5200000
ITEM: NUMBER OF ATOMS
896
ITEM: BOX BOUNDS pp pp ff
-1.7300000000000001e+01 1.6899999999999999e+01
-1.8300000000000001e+01 1.7800000000000001e+01
-5.0000000000000000e+01 5.0000000000000000e+01
ITEM: ATOMS q 
2.79017e-05 
7.14005e-05 
1.91323e-05 
2.10127e-05 
0.000114093 
3.27705e-05 
9.60463e-05 
5.67117e-05 
9.57697e-05 
9.37624e-05 
2.21893e-05 
4.13724e-05 
5.66684e-05 
7.63763e-05 
3.51816e-05 
3.90334e-05 
3.93637e-05 
9.54203e-05 
9.077e-05 
4.19937e-05 
3.13315e-05 
0.000123127 
4.8211e-05 
4.28066e-05 
8.55638e-05 
4.08932e-05 
0.000110955 
4.13257e-05 
6.3756e-05 
0.000108388 
3.88279e-05 
3.99455e-05 
0.000103414 
9.07784e-05 
2.91978e-05 
3.03691e-05 
3.31141e-05 
4.35407e-05 
4.8436e-05 
7.97522e-05 
5.91016e-05 
3.34362e-05 
1.2566e-05 
2.68552e-06 
2.62025e-06 
3.21401e-06 
1.75511e-06 
3.45463e-06 
1.91883e-06 
1.78429e-06 
2.82658e-06 
2.73001e-06 
1.19964e-05 
4.08704e-06 
1.20298e-05 
2.59877e-06 
2.04847e-06 
2.93179e-06 
1.64904e-06 
-3.80415e-05 
-0.00349792 
-4.1593e-05 
-0.00263456 
-0.000110692 
-0.000248978 
-3.51877e-05 
-0.00422661 
-5.59022e-05 
-0.00371728 
-0.000153864 
-2.24148e-05 
-5.80691e-05 
-0.00194926 
-1.05623e-05 
-0.0127917 
-0.000149305 
-1.73943e-05 
-0.000149016 
-0.000134327 
-0.00459463 
-0.00658324 
5.26728e-06 
2.85303e-06 
3.23524e-06 
4.10064e-06 
3.57172e-06 
3.86837e-06 
3.14095e-05 
1.57309e-06 
1.79908e-05 
2.18504e-06 
2.28328e-05 
4.78093e-06 
1.48827e-06 
-1.20728e-07 
2.97774e-06 
5.1359e-06 
2.42911e-05 
3.63196e-06 
-0.000176857 
9.23387e-06 
-0.000438112 
-0.000115549 
-0.0200273 
1.3183e-05 
-0.00833556 
-8.87628e-05 
-0.000186848 
-0.000152051 
-5.85041e-05 
-0.0111213 
-2.87685e-05 
2.54957e-06 
-0.018002 
-0.000170117 
-3.18553e-05 
3.52296e-05 
-0.023215 
-0.0219539 
3.46929e-06 
1.81967e-06 
1.55653e-05 
1.68746e-06 
3.32701e-06 
2.76638e-06 
1.43593e-06 
1.19043e-06 
2.30012e-05 
3.23031e-06 
2.72832e-06 
1.69962e-05 
4.02026e-06 
2.84227e-06 
4.83815e-06 
2.61683e-05 
4.48564e-06 
1.06858e-06 
-0.00299792 
-0.0106823 
-4.0463e-05 
-4.50059e-05 
-0.00646057 
-6.50107e-05 
-0.00425707 
1.00769e-07 
-1.28701e-05 
-0.000168979 
-0.00701344 
6.67295e-06 
-3.726e-05 
-0.000107644 
-6.40115e-05 
-0.00775105 
2.3693e-05 
-3.30742e-05 
7.01751e-06 
-0.0198337 
-5.64753e-05 
3.33012e-06 
2.47858e-05 
1.82988e-06 
8.30879e-07 
6.54507e-06 
4.18493e-06 
3.75292e-06 
3.63809e-06 
3.20834e-06 
2.60913e-05 
2.95748e-06 
4.88226e-06 
3.59547e-06 
3.47644e-06 
2.99226e-05 
4.62909e-06 
2.99409e-06 
-0.0172747 
-0.0171295 
-9.14104e-05 
-4.14982e-05 
-0.0152068 
-6.79688e-05 
-1.61313e-05 
-2.54931e-06 
-0.015876 
1.75131e-05 
-0.0257017 
8.7487e-05 
3.32632e-05 
-5.49255e-05 
-0.0137299 
-2.21207e-05 
2.30321e-05 
1.6503e-05 
6.35772e-05 
-0.0219147 
6.84306e-05 
-0.0257255 
-0.0166779 
-0.0344932 
-0.00938672 
-0.031881 
-0.0185664 
-0.0218078 
-0.0251019 
-0.0497231 
-0.0408789 
-0.0247217 
-0.048474 
-0.0237669 
-0.0379206 
-0.0266968 
-0.0290015 
-0.0186909 
-0.0416263 
-0.0155035 
-0.041688 
-0.0250282 
-0.0438759 
-0.0306764 
-0.0355479 
-0.0388561 
-0.0366716 
-0.0514808 
-0.045704 
3.41105e-05 
9.03984e-05 
5.12138e-05 
7.3746e-05 
3.5131e-05 
8.2627e-05 
6.40831e-05 
4.38945e-05 
0.000102765 
9.14653e-05 
4.92343e-05 
7.46262e-05 
4.85426e-05 
4.10451e-05 
5.10521e-05 
6.77628e-05 
4.4143e-05 
5.76417e-05 
5.24674e-05 
5.05282e-05 
1.74511e-05 
8.95071e-05 
2.59598e-05 
9.27301e-05 
0.000101352 
2.94902e-05 
1.64262e-05 
7.81664e-05 
9.52808e-05 
2.17136e-05 
0.000101758 
9.69044e-05 
3.17818e-05 
5.74534e-05 
9.64279e-05 
3.36309e-05 
5.13916e-05 
8.63813e-05 
4.50212e-05 
6.57467e-05 
9.16423e-05 
5.17829e-06 
1.00948e-06 
3.39413e-06 
2.39949e-05 
4.12693e-06 
2.68556e-05 
4.73838e-06 
1.69667e-06 
2.56921e-06 
1.84662e-05 
2.18399e-06 
2.29879e-06 
3.74993e-06 
1.35993e-05 
4.12082e-06 
3.39019e-06 
4.49909e-06 
2.69658e-06 
1.77454e-05 
-0.0181989 
-0.00973298 
-0.000317785 
-0.0201434 
-8.23721e-05 
-6.76967e-05 
-0.000152711 
-0.0103792 
2.01629e-05 
-0.00842056 
-1.22763e-05 
-0.000270596 
-0.000601817 
-5.02896e-05 
-5.34861e-05 
-0.00045057 
-0.000251071 
-3.75246e-05 
-0.0081936 
-0.000146748 
5.48377e-06 
2.59475e-05 
3.69313e-06 
2.63624e-05 
2.92817e-06 
5.31605e-06 
1.31201e-06 
4.74827e-06 
3.4846e-06 
2.81048e-06 
1.0469e-06 
4.49368e-06 
2.6699e-05 
6.73704e-06 
2.7198e-06 
1.91055e-06 
4.96198e-06 
-0.0201274 
-0.0136708 
-4.62301e-05 
-4.94836e-05 
-0.0132182 
2.82123e-05 
-0.0155418 
4.41571e-06 
-0.000167176 
-5.84331e-05 
-0.0125478 
2.21086e-06 
-0.0159119 
-6.91256e-05 
-0.000100446 
-0.000116297 
-3.12095e-05 
-0.0174963 
-3.90429e-05 
1.89169e-05 
-0.0228895 
-0.000169987 
-0.0119383 
2.95244e-06 
1.12483e-05 
9.8462e-06 
1.05192e-05 
4.01336e-06 
1.77762e-06 
2.27697e-06 
4.84809e-06 
6.64142e-06 
1.14634e-05 
8.23578e-06 
6.80793e-07 
3.15683e-06 
1.45926e-05 
3.61266e-06 
5.5297e-06 
3.83627e-06 
-0.000566308 
-0.000766382 
-7.97088e-05 
-0.00801919 
-0.000113884 
-0.00607213 
-0.000317967 
-9.92725e-05 
-0.0100389 
-7.41172e-05 
-0.000523062 
-0.0159355 
-0.000109035 
-4.50764e-05 
-0.00931132 
-5.95626e-05 
-0.000235856 
-0.000253889 
-0.000111508 
3.17766e-05 
-0.0127115 
-0.0149817 
9.14051e-07 
3.5353e-06 
2.32233e-05 
6.12368e-06 
2.19369e-06 
2.71239e-06 
3.812e-06 
6.50135e-06 
4.68052e-07 
2.02708e-06 
1.91087e-06 
2.39508e-05 
5.03445e-06 
2.97478e-05 
4.1966e-06 
4.00137e-06 
5.03032e-06 
-0.000161056 
-0.00910528 
-0.00032158 
-0.000108187 
-0.0141349 
-8.27421e-05 
-0.000205648 
-0.000100326 
-0.0126159 
-8.74083e-05 
-0.0193006 
-6.57138e-05 
-0.000141469 
-0.00015281 
-0.00013037 
-0.0241378 
-6.7142e-05 
-0.000192617 
-0.0205788 
3.03505e-05 
-0.0163981 
-0.0477505 
-0.0330572 
-0.0448854 
-0.017712 
-0.0240021 
-0.0359519 
-0.0269797 
-0.0487808 
-0.0342053 
-0.0152244 
-0.0454303 
-0.0480377 
-0.039338 
-0.0613991 
-0.0438297 
-0.04122 
-0.0635759 
-0.0519406 
-0.0477312 
-0.0484776 
-0.017837 
-0.0530479 
-0.0302839 
-0.0481637 
-0.0625881 
-0.0593574 
-0.0173429 
3.96572e-05 
9.09885e-05 
2.67613e-05 
2.96898e-05 
5.2745e-05 
9.16015e-05 
3.3862e-05 
2.92208e-05 
9.5927e-05 
5.9367e-05 
0.000113459 
6.80252e-05 
0.00011945 
3.73819e-05 
2.16902e-05 
9.67688e-05 
4.08296e-05 
9.63536e-05 
4.44774e-05 
0.000113579 
2.78785e-05 
4.8183e-05 
4.27554e-05 
3.67686e-05 
8.13198e-05 
5.42103e-05 
0.000105179 
2.62329e-05 
4.00159e-05 
6.65622e-05 
6.4506e-05 
7.00002e-05 
4.15401e-05 
0.000102779 
2.13297e-05 
0.00011819 
9.75775e-05 
2.029e-05 
9.8711e-05 
9.61008e-05 
8.86703e-05 
7.61737e-06 
5.78158e-06 
3.43585e-06 
1.38253e-06 
3.55905e-06 
3.78082e-06 
2.98611e-06 
2.34473e-06 
4.35138e-06 
5.52141e-06 
2.5532e-05 
2.18305e-06 
1.12975e-05 
2.93384e-06 
6.55895e-06 
4.16386e-06 
1.64185e-05 
-0.000266428 
-0.012306 
-3.55942e-05 
-6.17696e-05 
-0.000305331 
-0.00915853 
-0.000167977 
-0.0114475 
-6.64768e-05 
-0.000464763 
-0.00010854 
-0.018119 
-2.59544e-05 
-0.000197978 
-0.0138227 
-0.00529532 
-4.12655e-05 
-0.000101717 
-0.000128464 
-8.07735e-05 
-0.0194973 
-0.0101905 
1.11629e-05 
2.5059e-06 
6.07741e-06 
6.69618e-06 
1.69711e-06 
3.01519e-06 
2.99525e-06 
3.09045e-06 
3.38971e-06 
1.20511e-05 
3.83656e-06 
3.54292e-06 
4.79973e-06 
3.31569e-06 
2.74071e-06 
4.88839e-07 
-2.11453e-05 
-0.007595 
-0.000122332 
-0.00782815 
-5.16721e-05 
4.67289e-06 
-0.000669382 
-0.000158539 
-0.00362823 
-1.56019e-05 
-4.00491e-05 
-0.000175033 
-0.000151568 
-0.0127247 
-0.000688684 
-0.000471447 
-5.58669e-05 
-0.000198257 
-0.00648794 
1.81609e-06 
5.9922e-06 
6.80048e-06 
2.33529e-05 
4.1569e-06 
1.7096e-05 
3.75567e-06 
9.36222e-06 
4.06633e-06 
4.28565e-06 
8.24084e-06 
5.28532e-06 
2.77123e-05 
3.62948e-06 
1.83471e-05 
7.21292e-06 
6.34767e-06 
5.75965e-06 
-0.0126776 
-6.54993e-06 
-2.51155e-05 
-9.81969e-06 
-0.0159177 
5.34594e-05 
-0.0306126 
-0.000331916 
-0.00012879 
-0.0205155 
-0.0112484 
7.42058e-07 
4.2414e-05 
-0.0377022 
2.4471e-05 
7.1505e-05 
-0.0209948 
2.05244e-05 
6.54558e-06 
-7.53804e-05 
-0.0273611 
-3.65193e-05 
4.79978e-06 
-1.64311e-07 
1.16378e-05 
7.85404e-06 
4.37854e-06 
2.98038e-06 
8.10516e-06 
5.02524e-06 
4.86341e-06 
5.93695e-06 
1.50214e-05 
1.12352e-05 
1.83011e-05 
5.32998e-06 
3.26439e-06 
2.85349e-06 
1.01007e-05 
7.42027e-06 
1.53224e-05 
5.10176e-06 
-0.010421 
-0.000106139 
-0.000123153 
-0.000351904 
-0.0164685 
-1.47821e-06 
-0.00946614 
3.45375e-05 
-0.000666827 
-0.000418538 
-0.000198667 
4.84319e-05 
-0.0191253 
-4.41098e-05 
-3.54041e-05 
-6.60252e-05 
-9.97368e-05 
-0.010622 
-5.86397e-05 
-0.0198496 
-0.0406257 
-0.0489228 
-0.0384071 
-0.0284972 
-0.0374323 
-0.0465653 
-0.0547548 
-0.0206803 
-0.0328724 
-0.0449159 
-0.0189519 
-0.0356628 
-0.0202099 
-0.0478034 
-0.0294924 
-0.0508884 
-0.0388253 
-0.0452388 
-0.0636993 
-0.0487351 
-0.0483107 
-0.045299 
-0.0633114 
-0.0375072 
-0.0360053 
-0.0257764 
-0.0258334 
-0.0532534 
-0.0131097 
3.94583e-05 
5.86361e-05 
6.73777e-05 
7.16989e-05 
3.06591e-05 
5.89002e-05 
4.68739e-05 
4.47345e-05 
2.85566e-05 
8.55518e-05 
8.7167e-05 
4.70488e-05 
8.41077e-05 
4.17437e-05 
3.4785e-05 
7.17783e-05 
3.43826e-05 
0.000101482 
5.79075e-05 
5.5699e-05 
5.78889e-05 
6.02409e-05 
9.54722e-05 
3.32543e-05 
8.97176e-05 
2.83242e-05 
4.53739e-05 
0.000104531 
9.20413e-05 
2.74968e-05 
9.80077e-05 
3.13851e-05 
9.56084e-05 
0.000119407 
0.000104574 
2.01672e-05 
3.98999e-05 
1.69289e-05 
7.63071e-05 
1.81261e-05 
2.70981e-05 
0.00010451 
0.000102105 
1.95316e-06 
2.68907e-06 
4.54193e-06 
2.79104e-05 
4.41567e-06 
2.00574e-05 
3.36544e-06 
4.19011e-06 
3.98273e-06 
2.86119e-06 
2.91111e-06 
4.54578e-06 
2.8222e-05 
2.64598e-06 
3.80667e-06 
4.11844e-06 
5.29776e-06 
1.75234e-05 
-0.024109 
-0.00805789 
2.47245e-05 
-2.57839e-05 
-0.018596 
-8.40647e-05 
-0.0227891 
-1.03837e-05 
-1.88137e-05 
-3.81182e-05 
-0.0111355 
-0.000334097 
7.04501e-06 
-5.61663e-05 
-0.000111871 
-0.0104453 
1.36627e-05 
-5.12596e-05 
-8.3159e-05 
-0.0166072 
-0.000226454 
4.76865e-06 
1.94306e-05 
3.75303e-06 
2.67035e-06 
1.72844e-06 
2.08162e-06 
2.52336e-06 
2.36105e-05 
3.38507e-06 
4.40955e-06 
2.65655e-06 
3.5855e-06 
2.76877e-06 
1.70677e-05 
2.53267e-06 
3.22634e-06 
3.5767e-06 
-0.00920859 
-0.0136775 
-0.000296792 
-0.000143317 
-0.00982045 
-6.86976e-05 
-0.00623576 
-0.000171113 
-0.00016378 
-6.9947e-05 
-0.00734348 
-2.48358e-05 
-0.00380159 
-0.000397026 
-5.2404e-05 
-0.00595831 
-4.35515e-05 
-0.000317688 
-0.000189675 
-1.62537e-05 
-0.00902956 
-6.40789e-05 
2.16486e-05 
-0.0151947 
-0.0120991 
2.77871e-06 
2.38216e-06 
4.86209e-06 
5.716e-06 
3.74751e-06 
4.86943e-06 
5.21579e-06 
1.13927e-05 
3.5923e-06 
2.64143e-05 
2.55572e-06 
2.00704e-05 
4.24486e-06 
7.1614e-06 
7.62746e-06 
2.26562e-06 
3.4713e-06 
-3.3469e-05 
-0.000148226 
-0.0130728 
-0.000247864 
-0.0112946 
-1.63814e-05 
-8.15885e-05 
-0.000375319 
-0.00725411 
-0.00801835 
-8.02379e-05 
-6.10318e-05 
-0.000172953 
-0.000279031 
-0.0132944 
-3.73883e-05 
-3.63287e-05 
-0.000294753 
-0.000191527 
1.70466e-05 
-0.0112425 
-0.00561282 
3.71878e-06 
1.01547e-06 
3.41026e-06 
8.40465e-06 
8.78829e-06 
3.18241e-06 
5.67189e-07 
6.79559e-06 
3.14898e-06 
2.66781e-06 
5.96927e-07 
1.62419e-05 
8.63522e-06 
6.39614e-06 
7.3435e-06 
-0.000526388 
-7.98849e-05 
-7.78903e-05 
-0.00568193 
-0.000573258 
-6.2457e-05 
1.40056e-05 
-0.000458654 
-0.000628299 
-4.10437e-05 
-0.000144215 
-0.000409553 
-0.0116603 
-0.000273855 
-6.2804e-05 
-0.000912216 
-0.0488613 
-0.0406348 
-0.0362974 
-0.0389335 
-0.024613 
-0.03586 
-0.0479764 
-0.0527904 
-0.0359221 
-0.0471651 
-0.0384674 
-0.034672 
-0.0489844 
-0.0283104 
-0.0379147 
-0.0384315 
-0.0593949 
-0.0558927 
-0.0564996 
-0.0238705 
-0.0511156 
-0.015137 
-0.0618475 
-0.0516225 
-0.0613156 
-0.0211336 
-0.0363131 
-0.0307079 
-0.0280628 
-0.0238398 
ITEM: TIMESTEP
5400000
ITEM: NUMBER OF ATOMS
896
ITEM: BOX BOUNDS pp pp ff
-1.7300000000000001e+01 1.6899999999999999e+01
-1.8300000000000001e+01 1.7800000000000001e+01
-5.0000000000000000e+01 5.0000000000000000e+01
ITEM: ATOMS q 
3.00629e-05 
7.78526e-05 
2.10668e-05 
2.12957e-05 
0.000123434 
3.5021e-05 
0.000102583 
6.04771e-05 
0.000103929 
0.000100227 
2.4451e-05 
4.36948e-05 
6.03967e-05 
8.35754e-05 
3.60792e-05 
4.1047e-05 
4.12319e-05 
0.000104973 
9.86696e-05 
4.38798e-05 
3.2999e-05 
0.000133161 
5.01402e-05 
4.44171e-05 
9.26943e-05 
4.31316e-05 
0.000120709 
4.2924e-05 
6.78666e-05 
0.000117977 
4.16644e-05 
4.30858e-05 
0.000113458 
9.88827e-05 
3.03419e-05 
3.19913e-05 
3.55221e-05 
4.57882e-05 
5.23085e-05 
8.68413e-05 
6.42566e-05 
3.63212e-05 
1.25198e-05 
3.39761e-06 
3.01078e-06 
3.77664e-06 
2.71847e-06 
3.5759e-06 
1.89441e-06 
3.08659e-06 
4.0041e-06 
2.89155e-06 
1.38401e-05 
2.44135e-06 
1.49256e-05 
1.76583e-06 
2.99595e-06 
1.98773e-06 
2.53789e-06 
-5.38426e-05 
-0.00237492 
-2.46684e-05 
-0.00369104 
-0.000168125 
-0.000388494 
-4.86048e-05 
-0.00884698 
-8.14403e-05 
-0.00489068 
-0.000205113 
-2.18707e-05 
-7.70583e-05 
-0.00283328 
-1.4783e-05 
-0.0113384 
-0.000130305 
-1.93027e-05 
-0.000179296 
-0.000123151 
-0.00371607 
-0.00908028 
4.70076e-06 
4.63652e-06 
3.50966e-06 
4.74558e-06 
3.27818e-06 
5.92933e-06 
3.29579e-05 
3.00251e-06 
1.78569e-05 
2.91457e-06 
2.27672e-05 
6.0187e-06 
2.93649e-06 
2.03311e-06 
4.75758e-06 
6.09525e-06 
2.54976e-05 
3.6031e-06 
-0.00021432 
2.51673e-05 
-0.000298552 
-0.000101345 
-0.00909658 
5.83472e-06 
-0.00867792 
-9.36794e-05 
-0.000222437 
-0.000148882 
-6.89299e-05 
-0.00942985 
-9.32553e-05 
1.15162e-05 
-0.0220114 
-0.000148797 
-8.43375e-05 
2.26966e-05 
-0.0293636 
-0.02056 
2.57885e-06 
5.26488e-06 
1.79179e-05 
3.65903e-06 
1.90437e-06 
8.44677e-07 
3.47133e-06 
2.05284e-06 
2.33712e-05 
2.46505e-06 
5.3577e-06 
1.8356e-05 
4.95426e-06 
5.29266e-06 
3.54268e-06 
2.74431e-05 
4.00232e-06 
2.74851e-06 
-0.00486819 
-0.0089601 
-4.70203e-05 
-6.58831e-05 
-0.0101633 
-5.95352e-05 
-0.00523443 
1.5116e-06 
-1.70624e-05 
-0.000188329 
-0.00654983 
2.1916e-06 
-3.48789e-05 
-9.1751e-05 
-0.000172563 
-0.0171887 
-1.89944e-06 
2.21419e-05 
-1.35841e-05 
-0.0199686 
-7.4658e-05 
6.04349e-06 
2.44225e-05 
3.90398e-06 
3.06802e-06 
7.82031e-06 
3.99806e-06 
4.05143e-06 
3.50427e-06 
4.66181e-06 
2.69565e-05 
4.68308e-06 
4.73908e-06 
3.77381e-06 
3.86916e-06 
3.31527e-05 
3.96596e-06 
3.21051e-06 
-0.0175786 
-0.0191745 
-7.61989e-05 
-4.9536e-05 
-0.0176147 
-0.000171263 
9.66629e-06 
-4.14388e-06 
-0.011733 
4.16065e-05 
-0.0184249 
9.51595e-05 
2.16584e-05 
-3.0346e-05 
-0.0164806 
-6.20811e-05 
2.41168e-05 
-3.77879e-07 
7.62105e-05 
-0.0208182 
4.34411e-05 
-0.0278203 
-0.0245528 
-0.0434886 
-0.0261655 
-0.0288477 
-0.029605 
-0.0203342 
-0.013716 
-0.0293205 
-0.0433315 
-0.0320594 
-0.0554297 
-0.0114654 
-0.0205259 
-0.0272421 
-0.0338746 
-0.0281766 
-0.0338646 
-0.0126395 
-0.0519481 
-0.0363142 
-0.0308219 
-0.0421861 
-0.0327818 
-0.0300638 
-0.044265 
-0.0417371 
-0.0318668 
3.60142e-05 
9.73273e-05 
5.53604e-05 
8.00083e-05 
3.72168e-05 
8.93594e-05 
6.91547e-05 
4.65455e-05 
0.000111225 
9.90627e-05 
5.2923e-05 
7.95509e-05 
5.19787e-05 
4.34937e-05 
5.32581e-05 
7.15635e-05 
4.65168e-05 
6.18723e-05 
5.63198e-05 
5.45175e-05 
1.74688e-05 
9.62902e-05 
2.83788e-05 
0.000100827 
0.000109062 
3.22666e-05 
1.55346e-05 
8.45608e-05 
0.000104219 
2.16148e-05 
0.000111607 
0.000104501 
3.43304e-05 
6.26426e-05 
0.000104979 
3.59099e-05 
5.50247e-05 
9.40959e-05 
4.76292e-05 
7.05912e-05 
9.95681e-05 
6.37614e-06 
1.2843e-06 
4.13284e-06 
2.54427e-05 
5.0928e-06 
2.87419e-05 
6.09509e-06 
4.08187e-06 
2.30264e-06 
1.95676e-05 
2.95976e-06 
3.04704e-06 
4.62178e-06 
1.46795e-05 
3.70064e-06 
4.45001e-06 
5.54651e-06 
2.15416e-06 
1.91974e-05 
-0.0270291 
-0.0124173 
-0.00038363 
-0.0163757 
-7.14168e-05 
-6.37143e-05 
-0.000138629 
-0.0102637 
3.17354e-05 
-0.00910366 
-9.3913e-06 
-0.000396099 
-0.000670506 
-5.36987e-05 
-2.78846e-05 
-0.000338151 
-0.000300096 
-2.69788e-05 
-0.0103881 
-0.00011265 
4.66264e-06 
2.80457e-05 
5.41538e-06 
2.81261e-05 
4.99362e-06 
4.7534e-06 
1.94624e-06 
5.14729e-06 
4.39758e-06 
4.64641e-06 
4.26019e-06 
2.66421e-06 
2.75123e-05 
6.31001e-06 
3.49038e-06 
4.02681e-06 
3.56805e-06 
-0.0201219 
-0.013511 
-8.21459e-05 
-2.71625e-05 
-0.0198346 
-2.02489e-05 
-0.0152267 
1.23486e-06 
-0.000133071 
-8.12373e-05 
-0.011767 
1.76598e-05 
-0.0160599 
-5.0024e-05 
-8.28531e-05 
-7.80365e-05 
6.27947e-06 
-0.00999142 
-2.255e-05 
-3.81023e-05 
-0.0186138 
-8.03481e-05 
-0.0075614 
4.0865e-06 
8.38684e-06 
6.38503e-06 
1.21013e-05 
3.95579e-06 
1.84905e-06 
2.77188e-06 
2.95828e-06 
4.67957e-06 
1.13277e-05 
6.90615e-06 
3.06338e-06 
4.60912e-06 
1.49841e-05 
4.32602e-06 
6.51503e-06 
3.95401e-06 
-0.000455832 
-0.000588329 
-4.84861e-05 
-0.00522424 
-9.33836e-05 
-0.00526895 
-0.000236226 
-7.43637e-05 
-0.00877669 
-4.36824e-05 
-0.00036289 
-0.0133346 
-9.23394e-05 
-4.4448e-05 
-0.00672006 
-6.87714e-05 
-0.000210645 
-0.000306711 
-8.20239e-05 
3.37751e-05 
-0.00634778 
-0.016826 
1.03467e-06 
2.83275e-06 
2.45955e-05 
3.67433e-06 
2.22773e-06 
3.24852e-06 
5.40744e-06 
5.01212e-06 
1.86779e-06 
2.16e-06 
3.2656e-06 
2.43199e-05 
4.4838e-06 
2.99616e-05 
6.25519e-06 
5.51736e-06 
5.30056e-06 
-7.84825e-05 
-0.00447921 
-0.000131254 
-4.93621e-05 
-0.00639062 
-5.24707e-05 
-0.000134682 
-9.80212e-05 
-0.0110296 
-5.94668e-05 
-0.0156239 
-2.1444e-05 
-5.8138e-05 
-5.33804e-05 
-0.000105268 
-0.021299 
-9.15622e-05 
-0.000179591 
-0.0213983 
-3.02382e-05 
-0.0366384 
-0.0500265 
-0.0393036 
-0.0518157 
-0.0246844 
-0.0307174 
-0.0384647 
-0.0302176 
-0.0602169 
-0.0403068 
-0.025956 
-0.0412893 
-0.0340378 
-0.0315685 
-0.0419789 
-0.0409504 
-0.0317747 
-0.0403261 
-0.0441409 
-0.040209 
-0.0449907 
-0.00905708 
-0.0379336 
-0.0145226 
-0.0135609 
-0.0445432 
-0.0131989 
-0.0390447 
4.29543e-05 
9.94946e-05 
2.90491e-05 
3.11368e-05 
5.71669e-05 
9.94957e-05 
3.64749e-05 
3.05632e-05 
0.000103791 
6.33551e-05 
0.000123515 
7.32455e-05 
0.000128738 
3.92525e-05 
2.41e-05 
0.000104682 
4.32959e-05 
0.000104109 
4.80509e-05 
0.000121591 
3.15579e-05 
5.17035e-05 
4.61509e-05 
3.95112e-05 
8.68678e-05 
5.74506e-05 
0.000112223 
2.88763e-05 
4.40929e-05 
7.21482e-05 
6.95129e-05 
7.64689e-05 
4.5642e-05 
0.000110996 
2.373e-05 
0.00012718 
0.000105281 
2.17651e-05 
0.000106489 
0.00010384 
9.56936e-05 
8.25782e-06 
7.56098e-06 
3.32801e-06 
3.06461e-06 
3.63953e-06 
4.81057e-06 
3.26399e-06 
3.18616e-06 
4.97555e-06 
5.91949e-06 
2.66019e-05 
3.65703e-06 
1.12797e-05 
4.46683e-06 
4.86918e-06 
4.17707e-06 
1.72192e-05 
-0.00029167 
-0.0151661 
-3.14543e-05 
-7.33849e-05 
-0.000316527 
-0.00892755 
-0.000153993 
-0.0119151 
-6.89819e-05 
-0.000393215 
-9.0096e-05 
-0.0159948 
-2.26498e-05 
-0.000167342 
-0.0129582 
-0.004296 
-5.58015e-06 
-8.59213e-05 
-8.9703e-05 
-6.00593e-05 
-0.0197652 
-0.0111329 
1.22413e-05 
1.88213e-06 
4.64029e-06 
4.33453e-06 
1.56498e-06 
2.45428e-06 
5.01142e-06 
2.01165e-06 
3.35387e-06 
1.45929e-05 
1.91114e-06 
2.49196e-06 
2.19228e-06 
2.89948e-06 
2.96377e-06 
1.4629e-07 
-2.05386e-05 
-0.00621477 
-7.4915e-05 
-0.00635758 
-2.59701e-05 
2.61634e-07 
-0.000307482 
-0.000112882 
-0.00206743 
-1.09828e-05 
-2.51939e-05 
-0.000106184 
-7.5171e-05 
-0.00759094 
-0.000475958 
-0.00039213 
-3.56505e-05 
-0.000121163 
-0.00318396 
2.66831e-06 
5.11223e-06 
5.16685e-06 
2.75689e-05 
3.81511e-06 
1.88838e-05 
2.09933e-06 
5.80119e-06 
3.66725e-06 
2.48125e-06 
1.00558e-05 
3.06478e-06 
3.12452e-05 
2.67783e-06 
2.07757e-05 
7.84633e-06 
7.00448e-06 
4.58443e-06 
-0.0111589 
-1.91625e-05 
-3.19226e-05 
7.26537e-06 
-0.0182668 
2.92207e-05 
-0.0331599 
-0.000273292 
-0.000166724 
-0.0152303 
-0.00895547 
9.61205e-06 
3.65199e-05 
-0.037711 
-7.10738e-05 
7.9523e-05 
-0.0217467 
2.61064e-05 
1.05638e-05 
-0.000116588 
-0.0179108 
-8.54487e-05 
4.77496e-06 
1.6568e-06 
1.27303e-05 
5.99304e-06 
3.36599e-06 
4.48834e-06 
1.04181e-05 
3.62023e-06 
5.65942e-07 
4.16629e-06 
1.62412e-05 
8.9521e-06 
1.97089e-05 
5.11567e-06 
3.77084e-06 
2.96342e-06 
1.1955e-05 
5.46731e-06 
1.64741e-05 
3.85673e-06 
-0.00613181 
-8.98575e-05 
-0.00010442 
-0.000280466 
-0.0129706 
-2.64658e-06 
-0.0070285 
2.04011e-05 
-0.000582775 
-0.000319636 
-7.28977e-05 
3.68359e-05 
-0.0147273 
-6.1259e-05 
-3.5809e-05 
-6.09329e-05 
-0.0001488 
-0.00927394 
-4.28139e-05 
-0.0198298 
-0.0409734 
-0.0378808 
-0.0404289 
-0.0217963 
-0.0275026 
-0.0315267 
-0.0350349 
-0.00789801 
-0.0206108 
-0.044967 
-0.0119379 
-0.0336524 
-0.0184496 
-0.0431523 
-0.0299085 
-0.0393713 
-0.0343059 
-0.0467763 
-0.0497203 
-0.0452216 
-0.0376566 
-0.0225438 
-0.0330895 
-0.02617 
-0.0430405 
-0.0135676 
-0.0356332 
-0.0479767 
-0.0262902 
4.28264e-05 
6.26906e-05 
7.33391e-05 
7.79279e-05 
3.41189e-05 
6.41045e-05 
5.13633e-05 
4.90692e-05 
3.16104e-05 
9.19513e-05 
9.42619e-05 
5.14106e-05 
9.0364e-05 
4.47652e-05 
3.67172e-05 
7.78049e-05 
3.72153e-05 
0.000110831 
6.2481e-05 
5.9436e-05 
6.23704e-05 
6.60899e-05 
0.000102938 
3.59996e-05 
9.69037e-05 
3.07171e-05 
4.9494e-05 
0.000113304 
9.90435e-05 
3.05648e-05 
0.000105697 
3.23548e-05 
0.000104862 
0.000130759 
0.000113733 
2.02654e-05 
4.13771e-05 
1.7862e-05 
8.22091e-05 
1.97185e-05 
2.7488e-05 
0.000112923 
0.000111303 
3.45292e-06 
2.84266e-06 
5.15428e-06 
3.01438e-05 
3.10763e-06 
2.20872e-05 
3.64561e-06 
4.25356e-06 
4.32705e-06 
2.74054e-06 
1.9941e-06 
4.42949e-06 
3.14911e-05 
3.64938e-06 
3.01057e-06 
5.08184e-06 
5.16231e-06 
1.82093e-05 
-0.0285662 
-0.00898866 
4.52602e-05 
1.30736e-05 
-0.0202388 
-8.82074e-05 
-0.0154608 
6.65757e-05 
-2.16325e-05 
-1.60075e-05 
-0.0137629 
-0.000383251 
-1.80927e-05 
-9.62213e-05 
-0.000155462 
-0.0157956 
1.664e-05 
-4.79274e-05 
-8.08905e-05 
-0.016509 
-0.000160715 
3.5312e-06 
2.11478e-05 
3.77428e-06 
2.90308e-06 
2.12742e-06 
1.94651e-06 
3.24733e-06 
2.57822e-05 
3.9108e-06 
6.22987e-06 
2.38904e-06 
5.67091e-06 
3.24401e-06 
1.70333e-05 
4.35507e-06 
3.68771e-06 
4.39444e-06 
-0.00875503 
-0.0107475 
-0.000274842 
-0.000129856 
-0.010046 
-7.97628e-05 
-0.00828126 
-0.000142271 
-0.000174255 
-3.18899e-05 
-0.00524862 
-2.40867e-05 
-0.00346247 
-0.000449923 
-6.65493e-05 
-0.00638492 
-3.34164e-05 
-0.000367405 
-0.000203178 
-2.51172e-05 
-0.0118278 
-7.75877e-05 
2.3992e-05 
-0.0199222 
-0.00838583 
2.97267e-06 
2.24736e-06 
3.35895e-06 
4.49522e-06 
4.05975e-06 
4.59257e-06 
4.85071e-06 
1.18468e-05 
4.72276e-06 
2.78225e-05 
2.2278e-06 
2.21906e-05 
3.33678e-06 
7.08932e-06 
6.37001e-06 
1.49345e-06 
2.61082e-06 
-3.66504e-05 
-0.000175567 
-0.0124197 
-0.000149679 
-0.0101522 
-1.96204e-05 
-5.1347e-05 
-0.000266076 
-0.00447621 
-0.00644388 
-4.68541e-05 
-6.50025e-05 
-0.000198061 
-0.000215926 
-0.0117091 
-4.78647e-05 
-2.59095e-05 
-0.000225847 
-0.000103078 
1.64434e-05 
-0.0110596 
-0.00647401 
4.2777e-06 
2.76054e-06 
3.88216e-06 
8.50547e-06 
7.69425e-06 
5.11053e-06 
3.40675e-06 
5.52974e-06 
3.91742e-06 
1.71015e-06 
1.9747e-06 
1.11334e-05 
5.08022e-06 
8.46485e-06 
6.44911e-06 
-0.000407136 
-6.57059e-05 
-4.23258e-05 
-0.00442141 
-0.000575018 
-4.25243e-05 
2.44758e-06 
-0.000355613 
-0.000368939 
-1.17399e-05 
-6.43933e-05 
-0.00029595 
-0.00898979 
-0.000165515 
-6.15648e-05 
-0.000779568 
-0.0450774 
-0.0384782 
-0.0436643 
-0.0397875 
-0.0245218 
-0.0515167 
-0.0550278 
-0.0450197 
-0.0295396 
-0.0572684 
-0.0430074 
-0.0364337 
-0.0515646 
-0.0230438 
-0.0484783 
-0.0268813 
-0.0328713 
-0.0471303 
-0.0428564 
-0.00937448 
-0.0210963 
-0.0122134 
-0.0212694 
-0.02253 
-0.0296263 
-0.0390363 
-0.0535309 
-0.0314447 
-0.0575124 
-0.0202795 
ITEM: TIMESTEP
5600000
ITEM: NUMBER OF ATOMS
896
ITEM: BOX BOUNDS pp pp ff
-1.7300000000000001e+01 1.6899999999999999e+01
-1.8300000000000001e+01 1.7800000000000001e+01
-5.0000000000000000e+01 5.0000000000000000e+01
ITEM: ATOMS q 
-1.48361e-05 
-4.18681e-05 
-9.47796e-06 
-1.17026e-05 
-6.73692e-05 
-1.86274e-05 
-5.70825e-05 
-3.18007e-05 
-5.6345e-05 
-5.51326e-05 
-1.18124e-05 
-2.37188e-05 
-3.26787e-05 
-4.41217e-05 
-2.02518e-05 
-2.27309e-05 
-2.26789e-05 
-5.54572e-05 
-5.19822e-05 
-2.3854e-05 
-1.84457e-05 
-7.25861e-05 
-2.64915e-05 
-2.35874e-05 
-4.99178e-05 
-2.30879e-05 
-6.47749e-05 
-2.39476e-05 
-3.74445e-05 
-6.32543e-05 
-2.31477e-05 
-2.24289e-05 
-6.10708e-05 
-5.22458e-05 
-1.68744e-05 
-1.81564e-05 
-2.01924e-05 
-2.47622e-05 
-2.85496e-05 
-4.6523e-05 
-3.45965e-05 
-2.13437e-05 
-6.3791e-06 
5.38405e-07 
-1.48769e-06 
8.89157e-07 
2.04599e-06 
-6.62291e-07 
-2.05604e-06 
9.0991e-07 
-1.66912e-06 
-1.63377e-06 
-5.44613e-06 
1.55822e-06 
-5.47796e-06 
6.00818e-07 
1.20675e-06 
-9.01059e-07 
2.56117e-06 
-7.59845e-05 
-0.00359132 
-4.76714e-05 
-0.00808518 
-0.000214624 
-0.000644748 
-6.53283e-05 
-0.011639 
-0.000118416 
-0.0085057 
-0.000292158 
-4.71505e-05 
-0.000146814 
-0.00536315 
-3.1155e-05 
-0.0228703 
-0.000240512 
-3.07246e-05 
-0.000298721 
-0.000178197 
-0.00487309 
-0.0107766 
2.54348e-06 
2.2193e-06 
1.71658e-06 
2.44987e-06 
2.02707e-06 
8.9283e-07 
-1.8147e-05 
1.47544e-06 
-1.01148e-05 
2.33877e-06 
-1.41342e-05 
5.49017e-06 
1.74931e-06 
6.79572e-07 
1.56351e-06 
4.13883e-06 
-1.4969e-05 
6.18213e-07 
-0.000230671 
3.20964e-05 
-0.000461408 
-0.000146262 
-0.0132488 
-2.28225e-05 
-0.0159055 
-8.90248e-05 
-0.000359422 
-0.000314603 
-9.6586e-05 
-0.0152696 
-0.000105328 
-3.27154e-05 
-0.0217574 
-0.000272875 
-8.14814e-05 
3.48648e-05 
-0.0218884 
-0.0159569 
2.13043e-06 
-1.14269e-06 
-8.28633e-06 
-1.27164e-06 
-2.27171e-07 
5.14683e-07 
-1.35245e-07 
-1.15472e-06 
-1.20136e-05 
1.11683e-06 
6.46675e-08 
-9.88769e-06 
1.94191e-06 
6.66802e-07 
-5.88338e-08 
-1.54838e-05 
2.53445e-06 
-4.81796e-07 
-0.00635357 
-0.0116227 
-6.24024e-05 
-0.000112125 
-0.00988039 
-7.44365e-05 
-0.00570876 
8.09615e-07 
-2.85063e-05 
-0.00020002 
-0.00660378 
6.00254e-07 
-5.06044e-05 
-0.000111346 
-9.82982e-05 
-0.0090255 
2.28723e-05 
3.01924e-05 
9.01739e-06 
-0.0215319 
-0.000135102 
2.46643e-06 
-1.33046e-05 
4.61275e-07 
1.90422e-07 
3.55082e-06 
2.62025e-06 
2.14031e-06 
9.33786e-07 
2.38852e-06 
-1.52995e-05 
2.8816e-06 
5.10289e-06 
2.66178e-06 
2.98006e-07 
-1.89134e-05 
2.29663e-06 
1.08909e-06 
-0.019251 
-0.0152982 
-0.000129093 
-7.40272e-05 
-0.0188959 
-0.000190991 
1.87231e-06 
-1.43655e-05 
-0.0161331 
8.55833e-06 
-0.0283562 
4.0512e-05 
2.15675e-06 
-5.34889e-05 
-0.0181988 
-0.000120506 
-3.46107e-05 
-2.66721e-05 
5.11298e-05 
-0.0175937 
8.11999e-05 
-0.0424177 
-0.0484164 
-0.0507497 
-0.0519967 
-0.0549103 
-0.0348097 
-0.0310413 
-0.0143984 
-0.0413525 
-0.0554766 
-0.0503487 
-0.0512472 
-0.0188593 
-0.0233581 
-0.0311419 
-0.044872 
-0.0275659 
-0.0356931 
-0.0119233 
-0.0407803 
-0.0220077 
-0.0416896 
-0.0330247 
-0.0367256 
-0.0436535 
-0.0328769 
-0.0553239 
-0.0321974 
-2.00472e-05 
-5.25972e-05 
-3.04139e-05 
-4.2906e-05 
-2.10288e-05 
-4.78159e-05 
-3.7568e-05 
-2.55468e-05 
-5.93085e-05 
-5.2038e-05 
-2.93855e-05 
-4.26003e-05 
-2.90114e-05 
-2.44098e-05 
-2.98756e-05 
-3.87235e-05 
-2.60376e-05 
-3.39296e-05 
-3.09995e-05 
-2.99038e-05 
-9.61713e-06 
-5.1828e-05 