ITEM: TIMESTEP
5000000
ITEM: NUMBER OF ATOMS
896
ITEM: BOX BOUNDS pp pp ff
-1.7300000000000001e+01 1.6899999999999999e+01
-1.8300000000000001e+01 1.7800000000000001e+01
-5.0000000000000000e+01 5.0000000000000000e+01
ITEM: ATOMS q 
0 
0 
0 
0 
0 
0 
0 
0 
0 
0 
0 
0 
0 
0 
0 
0 
0 
0 
0 
0 
0 
0 
0 
0 
0 
0 
0 
0 
0 
0 
0 
0 
0 
0 
0 
0 
0 
0 
0 
0 
0 
0 
0 
0 
0 
0 
0 
0 
0 
0 
0 
0 
0 
0 
0 
0 
0 
0 
0 
0 
0 
0 
0 
0 
0 
0 
0 
0 
0 
0 
0 
0 
0 
0 
0 
0 
0 
0 
0 
0 
0 
0 
0 
0 
0 
0 
0 
0 
0 
0 
0 
0 
0 
0 
0 
0 
0 
0 
0 
0 
0 
0 
0 
0 
0 
0 
0 
0 
0 
0 
0 
0 
0 
0 
0 
0 
0 
0 
0 
0 
0 
0 
0 
0 
0 
0 
0 
0 
0 
0 
0 
0 
0 
0 
0 
0 
0 
0 
0 
0 
0 
0 
0 
0 
0 
0 
0 
0 
0 
0 
0 
0 
0 
0 
0 
0 
0 
0 
0 
0 
0 
0 
0 
0 
0 
0 
0 
0 
0 
0 
0 
0 
0 
0 
0 
0 
0 
0 
0 
0 
0 
0 
0 
0 
0 
0 
0 
0 
0 
0 
0 
0 
0 
0 
0 
0 
0 
0 
0 
0 
0 
0 
0 
0 
0 
0 
0 
0 
0 
0 
0 
0 
0 
0 
0 
0 
0 
0 
0 
0 
0 
0 
0 
0 
0 
0 
0 
0 
0 
0 
0 
0 
0 
0 
0 
0 
0 
0 
0 
0 
0 
0 
0 
0 
0 
0 
0 
0 
0 
0 
0 
0 
0 
0 
0 
0 
0 
0 
0 
0 
0 
0 
0 
0 
0 
0 
0 
0 
0 
0 
0 
0 
0 
0 
0 
0 
0 
0 
0 
0 
0 
0 
0 
0 
0 
0 
0 
0 
0 
0 
0 
0 
0 
0 
0 
0 
0 
0 
0 
0 
0 
0 
0 
0 
0 
0 
0 
0 
0 
0 
0 
0 
0 
0 
0 
0 
0 
0 
0 
0 
0 
0 
0 
0 
0 
0 
0 
0 
0 
0 
0 
0 
0 
0 
0 
0 
0 
0 
0 
0 
0 
0 
0 
0 
0 
0 
0 
0 
0 
0 
0 
0 
0 
0 
0 
0 
0 
0 
0 
0 
0 
0 
0 
0 
0 
0 
0 
0 
0 
0 
0 
0 
0 
0 
0 
0 
0 
0 
0 
0 
0 
0 
0 
0 
0 
0 
0 
0 
0 
0 
0 
0 
0 
0 
0 
0 
0 
0 
0 
0 
0 
0 
0 
0 
0 
0 
0 
0 
0 
0 
0 
0 
0 
0 
0 
0 
0 
0 
0 
0 
0 
0 
0 
0 
0 
0 
0 
0 
0 
0 
0 
0 
0 
0 
0 
0 
0 
0 
0 
0 
0 
0 
0 
0 
0 
0 
0 
0 
0 
0 
0 
0 
0 
0 
0 
0 
0 
0 
0 
0 
0 
0 
0 
0 
0 
0 
0 
0 
0 
0 
0 
0 
0 
0 
0 
0 
0 
0 
0 
0 
0 
0 
0 
0 
0 
0 
0 
0 
0 
0 
0 
0 
0 
0 
0 
0 
0 
0 
0 
0 
0 
0 
0 
0 
0 
0 
0 
0 
0 
0 
0 
0 
0 
0 
0 
0 
0 
0 
0 
0 
0 
0 
0 
0 
0 
0 
0 
0 
0 
0 
0 
0 
0 
0 
0 
0 
0 
0 
0 
0 
0 
0 
0 
0 
0 
0 
0 
0 
0 
0 
0 
0 
0 
0 
0 
0 
0 
0 
0 
0 
0 
0 
0 
0 
0 
0 
0 
0 
0 
0 
0 
0 
0 
0 
0 
0 
0 
0 
0 
0 
0 
0 
0 
0 
0 
0 
0 
0 
0 
0 
0 
0 
0 
0 
0 
0 
0 
0 
0 
0 
0 
0 
0 
0 
0 
0 
0 
0 
0 
0 
0 
0 
0 
0 
0 
0 
0 
0 
0 
0 
0 
0 
0 
0 
0 
0 
0 
0 
0 
0 
0 
0 
0 
0 
0 
0 
0 
0 
0 
0 
0 
0 
0 
0 
0 
0 
0 
0 
0 
0 
0 
0 
0 
0 
0 
0 
0 
0 
0 
0 
0 
0 
0 
0 
0 
0 
0 
0 
0 
0 
0 
0 
0 
0 
0 
0 
0 
0 
0 
0 
0 
0 
0 
0 
0 
0 
0 
0 
0 
0 
0 
0 
0 
0 
0 
0 
0 
0 
0 
0 
0 
0 
0 
0 
0 
0 
0 
0 
0 
0 
0 
0 
0 
0 
0 
0 
0 
0 
0 
0 
0 
0 
0 
0 
0 
0 
0 
0 
0 
0 
0 
0 
0 
0 
0 
0 
0 
0 
0 
0 
0 
0 
0 
0 
0 
0 
0 
0 
0 
0 
0 
0 
0 
0 
0 
0 
0 
0 
0 
0 
0 
0 
0 
0 
0 
0 
0 
0 
0 
0 
0 
0 
0 
0 
0 
0 
0 
0 
0 
0 
0 
0 
0 
0 
0 
0 
0 
0 
0 
0 
0 
0 
0 
0 
0 
0 
0 
0 
0 
0 
0 
0 
0 
0 
0 
0 
0 
0 
0 
0 
0 
0 
0 
0 
0 
0 
0 
0 
0 
0 
0 
0 
0 
0 
0 
0 
0 
0 
0 
0 
0 
0 
0 
0 
0 
0 
0 
0 
0 
0 
0 
0 
0 
0 
0 
0 
0 
0 
0 
0 
0 
0 
0 
0 
0 
0 
0 
0 
0 
0 
0 
0 
0 
0 
0 
0 
0 
0 
0 
0 
0 
0 
0 
0 
0 
0 
0 
0 
0 
0 
0 
0 
0 
0 
0 
0 
0 
0 
0 
0 
0 
0 
0 
0 
0 
0 
ITEM: TIMESTEP
5200000
ITEM: NUMBER OF ATOMS
896
ITEM: BOX BOUNDS pp pp ff
-1.7300000000000001e+01 1.6899999999999999e+01
-1.8300000000000001e+01 1.7800000000000001e+01
-5.0000000000000000e+01 5.0000000000000000e+01
ITEM: ATOMS q 
0.067372 
0.0213061 
0.0782046 
0.0355864 
0.0659417 
0.0364683 
0.0668626 
0.0527816 
0.0398844 
0.0546883 
0.0626632 
0.030307 
0.0278138 
0.0355987 
0.0497317 
0.0274191 
0.0453735 
0.0783443 
0.0450246 
0.112692 
0.0578315 
0.039062 
0.0567051 
0.0419043 
0.0529994 
0.041341 
0.0824926 
0.0185567 
0.000179383 
0.0332452 
0.000896428 
0.000136504 
0.0146349 
6.37722e-05 
0.000370915 
0.000313366 
0.000133885 
0.00137606 
0.000638686 
0.00590829 
0.000189632 
0.00538099 
6.39247e-05 
9.35474e-05 
0.000230102 
5.58825e-05 
0.0106055 
-7.22331e-06 
2.50255e-05 
-3.27046e-06 
1.11549e-06 
4.49703e-06 
-4.29883e-06 
1.47019e-06 
2.96146e-05 
5.55867e-07 
-6.2047e-06 
1.99742e-06 
7.87986e-07 
2.25437e-05 
-2.69223e-06 
3.46424e-06 
3.13684e-06 
2.3723e-06 
0.00872589 
5.60831e-05 
6.00955e-05 
9.08507e-05 
2.12929e-06 
0.0185823 
0.000104894 
-6.16078e-06 
0.0196314 
0.000183862 
0.0111999 
0.000140027 
0.0127021 
0.000104206 
0.000283051 
0.000230425 
0.000118931 
0.0186912 
8.98541e-05 
0.0172155 
0.000197418 
4.64167e-06 
2.6334e-06 
3.22291e-06 
-2.71776e-07 
5.82759e-05 
-7.14916e-07 
4.72358e-05 
2.98516e-07 
-2.36458e-07 
2.71581e-06 
-6.1013e-07 
4.53828e-05 
1.61613e-06 
2.6772e-06 
2.51938e-06 
-1.26145e-06 
-2.03622e-06 
0.00969524 
0.014392 
6.20563e-05 
9.89556e-05 
0.00133378 
0.000418975 
2.72212e-05 
5.92726e-05 
0.000680804 
0.000244496 
0.0255819 
0.000204359 
0.0476161 
0.000600917 
0.011165 
0.000285987 
0.000313147 
3.76864e-05 
0.0222083 
3.72041e-05 
0.000744845 
0.0213829 
0.031542 
-2.8471e-07 
4.23689e-07 
3.74462e-05 
-3.70757e-07 
2.9507e-05 
-1.99711e-06 
-5.46335e-06 
3.44055e-06 
3.76652e-05 
-4.52001e-07 
-1.43518e-06 
-3.37839e-06 
-2.21357e-06 
4.95009e-05 
-4.28743e-06 
-6.30474e-07 
-5.56639e-06 
5.4856e-05 
-2.2128e-07 
1.30528e-06 
5.52184e-05 
2.13413e-07 
-9.67029e-07 
2.7843e-06 
7.50553e-05 
0.000161622 
0.000148825 
5.20314e-05 
0.00733996 
1.57534e-05 
0.000100885 
0.0115287 
7.19933e-05 
0.000175139 
0.0111516 
-7.53724e-05 
0.0232677 
-6.64868e-05 
8.38066e-05 
5.95257e-05 
0.016797 
3.81015e-05 
0.0210462 
2.49422e-05 
0.00839533 
0.0107802 
-7.87935e-07 
3.56439e-07 
1.29744e-06 
-4.98174e-07 
-2.15676e-06 
5.44843e-05 
-1.01668e-06 
-4.22942e-07 
-7.55117e-06 
-7.80019e-07 
5.68177e-05 
1.72859e-06 
5.2999e-05 
0.000181547 
3.01216e-05 
4.16619e-05 
3.28074e-05 
5.88881e-05 
0.000158497 
0.000209678 
0.000190206 
0.000194876 
0.000207135 
0.000199299 
0.000177556 
0.000198219 
0.000119371 
0.000134019 
0.000102923 
6.75199e-05 
6.36879e-05 
8.9651e-05 
0.000186706 
7.29299e-05 
0.000168699 
0.000185309 
9.05031e-05 
0.000131066 
0.000104414 
7.33365e-05 
0.000151645 
0.000208583 
0.000109222 
0.000118305 
9.8174e-05 
8.94611e-05 
0.000186836 
0.000136972 
0.000102259 
8.1788e-05 
0.000103367 
0.000102266 
0.000150887 
0.0496992 
0.0472878 
0.0639935 
0.0493297 
0.0212548 
0.0663951 
0.0377454 
0.0246921 
0.005759 
0.0480268 
0.0484094 
0.0317182 
0.0330225 
0.0149988 
0.0412701 
0.0356787 
0.0470097 
0.026175 
0.0429887 
0.0577519 
0.0546564 
0.0374112 
0.033905 
0.0456433 
0.0523596 
0.0196682 
0.0303829 
0.069885 
0.0140401 
0.0167927 
0.000234668 
6.58587e-05 
-1.32115e-05 
0.00972106 
0.000218215 
0.000142027 
2.23819e-05 
5.49212e-05 
0.0172231 
0.0139095 
0.000175794 
0.000122418 
3.19341e-05 
0.0134295 
0.000116664 
0.000492801 
5.68842e-05 
-2.445e-05 
0.0092913 
0.00923076 
0.00791287 
1.92719e-06 
2.16127e-07 
2.51147e-06 
1.59425e-07 
3.54362e-05 
-3.66134e-06 
5.37367e-05 
7.91031e-07 
9.44806e-07 
3.40646e-06 
6.03487e-07 
1.29492e-06 
3.56841e-07 
3.32927e-05 
2.18774e-06 
8.35297e-06 
4.51954e-05 
1.76589e-06 
-7.59348e-05 
5.52889e-05 
-7.51995e-05 
-7.49362e-05 
0.0113305 
-8.99712e-05 
-7.66934e-05 
-6.35058e-05 
9.91264e-05 
0.00028266 
2.2651e-06 
0.00651057 
-8.73471e-06 
-6.71123e-05 
-7.04624e-05 
0.0143081 
-3.75208e-05 
0.014294 
0.0140377 
4.05674e-06 
-2.77415e-07 
7.46545e-07 
5.32635e-05 
2.49353e-06 
1.47274e-06 
1.06531e-07 
2.05257e-06 
6.42026e-05 
-1.99218e-06 
4.43083e-07 
1.76309e-06 
4.67458e-05 
4.17228e-07 
-2.17883e-06 
1.60055e-06 
3.00762e-07 
0.000309061 
4.83307e-05 
0.000247503 
0.000161815 
5.30105e-05 
0.0034182 
0.000112603 
1.55673e-05 
0.0187968 
0.00833232 
6.93839e-05 
0.00481772 
8.00688e-05 
0.000685224 
0.000240442 
0.00849688 
0.000123249 
0.0105482 
7.67982e-05 
0.000321983 
2.27628e-06 
5.24818e-06 
2.07146e-06 
2.68034e-05 
-9.40635e-07 
2.42207e-05 
1.28783e-06 
4.73717e-07 
-1.49179e-06 
4.02457e-06 
-3.25101e-07 
2.54857e-05 
-4.19621e-07 
-2.03362e-06 
3.77153e-06 
4.10345e-06 
3.3957e-06 
0.00865138 
0.0084496 
0.0324499 
0.00021245 
1.46473e-05 
-2.94314e-05 
0.000350222 
0.0157002 
3.61247e-05 
1.97388e-05 
0.0176278 
-5.74317e-06 
0.000225785 
0.000754115 
-3.5522e-05 
0.00873538 
2.67467e-07 
0.0159464 
0.000226752 
0.000229602 
0.000130367 
9.08229e-07 
3.53053e-05 
1.11471e-06 
-4.00336e-06 
4.52318e-05 
6.63745e-07 
2.25601e-06 
2.06189e-06 
5.04087e-05 
-1.02842e-06 
-1.45843e-06 
-4.63419e-07 
2.95498e-07 
6.3483e-07 
-7.4868e-07 
1.54658e-06 
6.44012e-05 
-4.37336e-07 
0.0255084 
9.61052e-05 
0.000226525 
8.55017e-05 
0.000175751 
8.4688e-05 
0.000129959 
7.99334e-05 
0.000250531 
8.2256e-05 
0.000221421 
6.85807e-05 
9.82559e-05 
7.08293e-05 
0.000213309 
0.000122017 
6.30598e-05 
0.000163121 
8.83534e-05 
5.87917e-05 
0.000185179 
8.1758e-05 
0.000145948 
4.1109e-05 
3.91933e-05 
0.000195726 
0.00019687 
6.58893e-05 
0.000190947 
0.000114271 
0.000233791 
5.64025e-05 
4.54468e-05 
6.3822e-05 
7.75408e-05 
0.000184464 
8.33988e-05 
7.07529e-05 
0.000197373 
0.000156273 
8.00024e-05 
8.23269e-05 
0.000113495 
0.0536811 
0.0551512 
0.0118811 
0.0592771 
0.0553537 
0.080998 
0.0436418 
0.0517065 
0.0597258 
0.0483996 
0.0711593 
0.0425415 
0.0769051 
0.0206275 
0.0557815 
0.027723 
0.0675045 
0.076928 
0.0646529 
0.0852474 
0.0316945 
0.0496974 
0.0511355 
0.0329683 
0.0261151 
0.0513004 
0.0470279 
0.0747906 
0.0331632 
0.0336969 
0.0594453 
0.000186398 
8.31723e-05 
3.19363e-05 
0.0170656 
0.000379817 
0.000263334 
2.04416e-05 
0.000172487 
0.0234531 
0.000319274 
8.85336e-05 
6.78718e-05 
0.0201965 
0.000382956 
0.00798796 
0.000529197 
0.000131486 
8.13064e-05 
0.0140412 
3.00616e-06 
5.47971e-05 
-2.13783e-06 
-2.72244e-06 
-2.95433e-08 
4.31111e-05 
4.06819e-06 
-3.79401e-06 
2.90295e-06 
8.86063e-07 
-1.13553e-06 
-2.61459e-06 
-7.30784e-07 
-1.88155e-06 
-5.4131e-07 
2.57445e-05 
-2.63749e-07 
0.013001 
4.63951e-05 
0.00067652 
0.000166955 
3.54317e-05 
0.00046189 
0.018109 
0.000671254 
0.00145033 
0.000155388 
0.000839138 
0.0079545 
0.000101736 
0.000150977 
0.000118262 
0.000732597 
0.000846884 
-1.16707e-05 
-1.74626e-06 
-2.0617e-07 
-1.67894e-08 
-1.79437e-05 
3.04451e-06 
-6.67266e-06 
1.61499e-05 
-2.0848e-06 
-3.36334e-07 
7.20008e-07 
4.03866e-06 
-3.82735e-06 
-6.35929e-06 
5.23459e-06 
3.32885e-07 
0.0164408 
0.00701397 
3.21158e-05 
0.000234183 
0.000162227 
6.89115e-05 
0.0399434 
0.000599145 
0.000261 
0.000221393 
0.000372267 
0.0130386 
0.0346614 
1.41788e-05 
-4.27166e-05 
8.42283e-05 
0.00953265 
-3.31317e-05 
0.0159947 
6.25848e-05 
1.40156e-05 
0.000410739 
0.0128963 
0.00998382 
9.51209e-07 
6.428e-07 
-4.57847e-06 
5.79548e-05 
-7.31859e-06 
1.47206e-06 
1.03245e-06 
3.73176e-05 
-3.02234e-06 
5.59791e-07 
1.56411e-06 
2.46982e-06 
5.75773e-05 
4.78322e-08 
-4.65717e-07 
1.35478e-06 
4.23788e-05 
1.16113e-07 
-1.69071e-07 
4.09001e-05 
-2.75196e-06 
2.8299e-08 
4.61851e-05 
-2.93735e-06 
3.82458e-06 
0.000382005 
9.54084e-05 
0.00467337 
9.69943e-05 
0.000332541 
0.000732884 
0.000100209 
0.0218384 
3.65231e-05 
0.000137465 
0.00487364 
6.53677e-05 
0.00604958 
0.000177281 
0.000317362 
0.000405889 
0.0123425 
0.000101421 
0.0226255 
0.000414223 
0.00604002 
0.0416494 
-1.12055e-07 
-1.29694e-06 
2.4387e-06 
-2.30221e-06 
3.319e-05 
-1.0975e-06 
5.93289e-06 
9.70155e-07 
-4.85132e-07 
-1.21307e-06 
0.000124002 
0.000192874 
5.87452e-05 
0.000212783 
9.22879e-05 
5.70257e-05 
0.000185283 
6.77705e-05 
0.000198808 
0.000182611 
6.23055e-05 
4.00471e-05 
3.77273e-05 
0.000213259 
0.000196516 
7.80905e-05 
5.2746e-05 
0.000153963 
0.000208739 
0.000246881 
3.53515e-05 
0.000213254 
8.48038e-05 
0.000120582 
6.43916e-05 
9.47567e-05 
9.73699e-05 
0.000173831 
5.9947e-05 
0.000137936 
0.000146694 
0.000119177 
0.000120701 
0.00020741 
8.69204e-05 
0.00017621 
9.60733e-05 
0.000112477 
6.99003e-05 
0.000147793 
0.000118351 
6.78224e-05 
0.000174227 
0.036182 
0.026639 
0.0637465 
0.0630346 
0.0341688 
0.0265914 
0.0345455 
0.070138 
0.058306 
0.0460731 
0.0264028 
0.0299931 
0.0141576 
0.0670908 
0.069189 
0.0496506 
0.0254216 
0.0635711 
0.061861 
0.0595931 
0.0245239 
0.0674897 
0.0304502 
0.060806 
0.0438539 
0.0702833 
0.0233977 
0.0583323 
0.0522475 
0.0644246 
-0.000124469 
0.0127638 
-0.00010632 
-0.000113293 
0.0235113 
1.51549e-05 
-4.17691e-05 
-0.000107359 
-4.6214e-05 
0.0162218 
0.0314359 
-7.84225e-05 
8.67008e-05 
-2.51339e-05 
0.0229459 
-5.53967e-05 
0.0180296 
0.000192635 
9.16196e-05 
-2.53181e-05 
0.0100508 
0.0116818 
5.52484e-07 
1.87118e-06 
6.02362e-07 
6.22823e-05 
-1.43852e-06 
-1.72411e-06 
-3.84765e-06 
4.32286e-05 
-1.04618e-07 
-3.29673e-06 
1.94574e-06 
1.40269e-06 
5.36198e-05 
-3.01976e-06 
-2.34673e-06 
4.54709e-06 
3.723e-05 
8.34692e-07 
0.000125287 
-5.95336e-06 
-1.70067e-05 
0.000114337 
0.0276061 
3.40412e-05 
0.000294733 
0.0141211 
0.00012837 
-2.58129e-05 
0.0440686 
0.000301796 
6.98724e-05 
-3.61107e-05 
0.0134568 
-3.0066e-05 
0.000222917 
0.00105373 
0.0157522 
7.65279e-07 
-1.37612e-06 
3.96149e-05 
-7.92458e-06 
3.43441e-05 
1.18633e-07 
-6.38087e-07 
-2.2642e-06 
3.34751e-05 
-4.3372e-07 
2.23822e-05 
1.03495e-06 
-5.15924e-06 
2.84113e-05 
1.89031e-06 
4.32649e-06 
-9.51084e-08 
5.85222e-06 
-1.96736e-06 
2.22661e-05 
7.45801e-05 
0.000130044 
1.02583e-05 
7.58582e-06 
0.0175233 
0.000232707 
5.38684e-05 
0.0151167 
0.000238688 
0.00426739 
3.01778e-05 
0.0150988 
0.000377127 
0.0183675 
0.000536798 
0.000137376 
0.000139686 
0.0231047 
0.000276242 
0.00076587 
6.0268e-07 
6.3071e-07 
3.25728e-06 
5.26187e-05 
-1.41751e-06 
-9.24686e-07 
3.67918e-07 
2.41738e-05 
3.26895e-05 
-1.00734e-06 
-5.46472e-07 
-4.9226e-06 
1.62959e-06 
4.32003e-07 
1.34877e-06 
8.18742e-07 
1.80296e-06 
0.0209793 
0.0126532 
0.00593715 
4.83348e-06 
0.00081857 
8.7341e-05 
0.000263223 
0.00012357 
0.000262851 
0.0283863 
0.000267431 
0.0012087 
0.0085224 
6.63288e-05 
0.000155839 
0.0115214 
0.000226499 
0.000963069 
1.0011e-05 
3.8925e-05 
0.00241803 
0.000202744 
4.3325e-06 
-7.07798e-07 
3.12792e-06 
2.77969e-05 
4.32178e-06 
-1.98657e-06 
8.57015e-06 
3.53356e-06 
4.26814e-06 
2.45112e-05 
-1.83606e-06 
-1.57692e-06 
3.33534e-06 
1.50859e-06 
-5.95347e-07 
5.69381e-05 
0.000130554 
0.000136547 
7.57856e-05 
8.63275e-05 
0.00016405 
8.85512e-05 
0.000210497 
0.00014302 
0.000108555 
4.6363e-05 
0.000194672 
4.33711e-05 
0.000238659 
0.000196224 
0.000179337 
0.000207729 
0.000198069 
0.000187007 
6.04963e-05 
6.72671e-05 
5.57592e-05 
0.000185076 
8.1108e-05 
0.000106725 
6.04505e-05 
0.000193589 
0.000232466 
0.000119493 
0.000196097 
0.0001378 
4.4262e-05 
8.26012e-05 
8.65717e-05 
0.000244652 
5.92801e-05 
0.00023078 
9.85614e-05 
0.000197379 
7.52732e-05 
8.9399e-05 
ITEM: TIMESTEP
5400000
ITEM: NUMBER OF ATOMS
896
ITEM: BOX BOUNDS pp pp ff
-1.7300000000000001e+01 1.6899999999999999e+01
-1.8300000000000001e+01 1.7800000000000001e+01
-5.0000000000000000e+01 5.0000000000000000e+01
ITEM: ATOMS q 
0.0627212 
0.0323177 
0.0684818 
0.0306853 
0.0526249 
0.0224978 
0.0606569 
0.019275 
0.0717906 
0.0908234 
0.0617905 
0.045165 
0.0250919 
0.0756573 
0.0591026 
0.019729 
0.011613 
0.0800447 
0.0478794 
0.0631937 
0.0439881 
0.0446464 
0.0780115 
0.0381753 
0.0943376 
0.0776158 
0.056612 
0.0407059 
0.000257919 
0.0456387 
0.00111978 
0.000209648 
0.0189186 
8.08446e-05 
0.000496263 
0.000330933 
0.000240912 
0.00125315 
0.000701416 
0.00481517 
0.000213576 
0.00355644 
8.24235e-05 
9.76205e-05 
0.00012936 
9.45425e-05 
0.0100505 
-1.23804e-05 
1.19135e-05 
-6.19008e-06 
-3.62414e-06 
1.40248e-07 
-3.60568e-06 
7.10884e-07 
1.28278e-05 
-1.06987e-06 
-6.60622e-06 
-2.37971e-06 
-2.09177e-06 
1.09015e-05 
-1.2728e-06 
3.19071e-06 
7.99215e-07 
-1.00025e-07 
0.00346689 
0.000116058 
0.000188222 
0.000163625 
0.000137608 
0.0417057 
0.000139931 
0.00012407 
0.0349863 
0.000242444 
0.0131314 
0.000246621 
0.0182761 
0.00017929 
0.000659894 
0.000223869 
0.000182095 
0.0187822 
6.90605e-05 
0.0135488 
0.000205654 
5.25349e-08 
2.81002e-06 
-7.01684e-07 
-5.71065e-06 
2.7933e-05 
-3.42874e-06 
2.39955e-05 
-2.55259e-06 
-4.14571e-06 
6.49354e-07 
-3.86447e-06 
2.23366e-05 
-3.27691e-06 
-3.03847e-06 
-1.27278e-06 
-2.91628e-06 
-2.96287e-06 
0.0262999 
0.0155745 
2.92902e-05 
0.000117221 
0.00135514 
0.000400546 
7.4895e-06 
1.10984e-05 
0.000249593 
0.000110473 
0.00695147 
0.000153029 
0.0180556 
0.000283064 
0.0108498 
0.000273096 
0.000278191 
7.09072e-06 
0.0232857 
3.005e-05 
0.000424769 
0.0141643 
0.0205034 
-8.26305e-07 
-1.82783e-06 
1.88508e-05 
-9.30124e-07 
1.44644e-05 
-2.40814e-06 
-1.41387e-07 
1.36046e-06 
1.65608e-05 
-1.84878e-06 
-1.35145e-06 
-2.88896e-06 
-2.34196e-06 
2.4568e-05 
-2.86408e-06 
-2.34314e-06 
-6.53621e-06 
2.70284e-05 
9.63427e-07 
8.10628e-07 
2.64892e-05 
-3.45972e-06 
-4.95703e-06 
2.32932e-06 
0.000203729 
0.000242014 
0.000430193 
6.89522e-05 
0.0281012 
0.000149499 
0.000141413 
0.0242547 
4.0297e-05 
6.94025e-05 
0.0357139 
-9.98935e-06 
0.0356419 
-8.48275e-05 
0.000245288 
-4.38042e-05 
0.040437 
0.000135974 
0.0307438 
-8.86024e-08 
0.0177646 
0.0257612 
1.0502e-06 
-5.69254e-06 
-1.97467e-06 
-2.00883e-06 
-1.00809e-05 
2.60711e-05 
-3.91563e-07 
-5.03111e-06 
-4.50984e-06 
-4.15686e-06 
2.63568e-05 
-2.1693e-06 
2.57285e-05 
8.55161e-05 
1.59565e-05 
2.08714e-05 
1.65237e-05 
2.78078e-05 
7.47394e-05 
9.88981e-05 
8.85543e-05 
9.10223e-05 
9.78562e-05 
8.63569e-05 
9.2494e-05 
6.22985e-05 
8.27608e-05 
3.08128e-05 
4.89642e-05 
4.2317e-05 
5.58062e-05 
3.20804e-05 
9.37476e-05 
7.10043e-05 
3.45168e-05 
9.84869e-05 
8.65189e-05 
4.29612e-05 
7.88686e-05 
3.51025e-05 
4.88424e-05 
6.15752e-05 
6.46829e-05 
5.14669e-05 
4.87334e-05 
7.06238e-05 
4.84721e-05 
3.84733e-05 
4.73875e-05 
8.73298e-05 
4.24834e-05 
5.56514e-05 
4.64965e-05 
0.0352323 
0.0545977 
0.0394661 
0.0530044 
0.018407 
0.0448215 
0.0526109 
0.0416357 
0.0307199 
0.0377616 
0.0587323 
0.0148329 
0.0142512 
0.0404458 
0.0483614 
0.0551025 
0.0698063 
0.0732446 
0.068238 
0.0456637 
0.058227 
0.0344068 
0.0411279 
0.0402163 
0.05351 
0.0237626 
0.0417495 
0.0711885 
0.036109 
0.0492385 
9.5382e-05 
7.24617e-05 
3.88665e-06 
0.0179778 
0.000371299 
0.000134232 
4.56013e-05 
1.7595e-05 
0.0135513 
0.0121469 
0.000107328 
8.05106e-05 
1.71692e-05 
0.00804047 
0.000109398 
0.000304599 
3.6869e-05 
-4.01217e-05 
0.00597039 
0.00899821 
0.0130129 
1.0915e-06 
-1.11872e-06 
-1.11725e-06 
-2.95351e-06 
1.68354e-05 
-5.52189e-06 
2.5746e-05 
-7.77727e-07 
2.08178e-06 
2.13632e-06 
-2.36438e-06 
7.84091e-07 
1.24092e-06 
1.46588e-05 
2.43972e-06 
-1.08652e-06 
2.04359e-05 
2.60396e-06 
-5.19466e-05 
-3.13492e-05 
0.000117821 
-0.000160512 
0.0502631 
-0.000147198 
-0.000223004 
-6.76506e-05 
9.23636e-05 
6.93314e-05 
-3.07583e-05 
0.0122889 
-3.96466e-05 
-0.000120374 
-0.000132205 
0.0114435 
-3.16041e-05 
0.0109045 
0.0104947 
3.4641e-07 
-2.32917e-06 
8.00353e-07 
2.39733e-05 
-8.7589e-07 
-2.19155e-06 
-2.23575e-06 
2.58925e-06 
3.00679e-05 
-1.99116e-06 
2.43111e-06 
3.08072e-07 
2.20677e-05 
-2.45082e-07 
-3.70684e-06 
7.44271e-07 
-1.06701e-06 
0.000393451 
4.31026e-05 
0.000433289 
0.000150716 
7.25392e-05 
0.01022 
0.000189254 
2.59966e-05 
0.0231147 
0.0117471 
7.0085e-05 
0.00619825 
8.60957e-05 
0.000868206 
0.000285581 
0.00981961 
0.000165726 
0.00923773 
8.5649e-05 
0.000349146 
1.96593e-06 
4.499e-06 
-1.95807e-06 
1.15676e-05 
-2.41967e-06 
1.16368e-05 
6.88652e-07 
-1.73704e-06 
-2.66957e-06 
7.44393e-07 
-3.84224e-06 
1.29617e-05 
-2.88037e-06 
-4.1958e-06 
1.98851e-06 
-9.01948e-07 
-1.63665e-06 
0.0119481 
0.012694 
0.0482032 
0.000238626 
1.98376e-05 
-4.89906e-05 
0.000304313 
0.0163557 
5.26134e-05 
-1.31949e-05 
0.0238095 
3.28554e-07 
0.000345414 
0.000532955 
-4.10186e-05 
0.0106593 
-1.90733e-05 
0.0234759 
0.000313481 
0.000313724 
0.000150402 
-3.90477e-06 
1.62972e-05 
-9.3829e-07 
-3.6766e-06 
2.16806e-05 
-1.77992e-06 
9.41579e-07 
-3.22654e-06 
2.54e-05 
-8.67619e-07 
-2.616e-06 
-2.90494e-06 
-2.17705e-06 
-5.2553e-07 
-5.6077e-06 
-9.5267e-07 
3.00162e-05 
-4.19969e-06 
0.0499878 
4.50256e-05 
0.000107197 
3.88839e-05 
8.23965e-05 
3.99782e-05 
6.04372e-05 
3.67437e-05 
0.000119785 
3.7236e-05 
0.000104109 
8.67214e-05 
5.76884e-05 
3.35778e-05 
7.73008e-05 
3.13136e-05 
3.22906e-05 
2.73984e-05 
4.63011e-05 
3.75344e-05 
4.11964e-05 
0.000100564 
6.84225e-05 
0.000109501 
1.97066e-05 
2.06044e-05 
2.60811e-05 
1.93841e-05 
5.30157e-05 
9.22252e-05 
9.00293e-05 
3.15574e-05 
9.25396e-05 
9.26003e-05 
3.94346e-05 
3.93766e-05 
3.78059e-05 
3.09432e-05 
3.8844e-05 
7.38465e-05 
8.62286e-05 
3.35674e-05 
5.3705e-05 
0.0697103 
0.0521508 
0.0129256 
0.0781043 
0.0386946 
0.0630137 
0.0314876 
0.031339 
0.0682667 
0.0537108 
0.0487736 
0.0427881 
0.0862562 
0.027608 
0.0597695 
0.0323911 
0.0672134 
0.0919851 
0.0559139 
0.0217162 
0.071899 
0.021077 
0.030974 
0.0247796 
0.0437547 
0.0672375 
0.0465238 
0.0650139 
0.0567505 
0.0441348 
0.0638661 
0.000240691 
0.00011449 
0.00011973 
0.0215032 
0.000317797 
0.000390131 
5.67126e-05 
0.000186251 
0.0261758 
0.000412759 
0.000131565 
9.51063e-05 
0.0259989 
0.000338851 
0.00396885 
0.000409237 
0.000115445 
7.58311e-05 
0.0085034 
-8.06606e-07 
2.71656e-05 
-3.5637e-06 
-5.25074e-06 
-3.04221e-06 
2.08108e-05 
-1.0795e-07 
-2.68597e-06 
8.01075e-07 
-1.46313e-06 
-1.36473e-06 
-3.21134e-06 
-4.10937e-06 
-1.9747e-06 
-6.32822e-07 
1.22846e-05 
4.96743e-07 
0.00745858 
2.14747e-05 
0.00060308 
0.000152316 
3.65464e-05 
0.000339442 
0.0166621 
0.00072102 
0.0018227 
0.000237896 
0.000759909 
0.00892483 
8.49676e-05 
0.0001656 
0.000133699 
0.00117379 
0.00098323 
-1.45579e-05 
-3.95856e-06 
-4.17915e-07 
-1.98156e-06 
-2.37825e-05 
1.70691e-06 
-1.12146e-05 
8.14055e-06 
-4.08792e-06 
-3.17845e-07 
-1.1337e-06 
1.69501e-06 
-7.50431e-06 
-1.19049e-05 
3.67845e-06 
-4.32454e-06 
0.0240357 
0.0095296 
1.61911e-05 
0.000122831 
8.11089e-05 
2.22541e-05 
0.0102097 
6.63673e-05 
6.84386e-05 
5.74088e-05 
0.000292649 
0.00872358 
0.0380286 
0.000133373 
-3.62498e-05 
-4.34216e-05 
0.0147603 
-4.40572e-05 
0.00741083 
2.25271e-05 
3.49674e-06 
0.000291781 
0.0445684 
0.00814103 
-4.378e-07 
-2.14862e-06 
7.63248e-07 
2.76878e-05 
-3.63715e-06 
-1.6566e-08 
1.39042e-06 
1.75113e-05 
-1.45064e-06 
-1.25008e-07 
-6.69894e-07 
1.94729e-08 
2.77294e-05 
-1.0561e-07 
-1.99813e-06 
1.06984e-07 
2.13904e-05 
-2.81489e-06 
-4.03386e-06 
1.99067e-05 
-2.73281e-06 
-1.52911e-06 
2.26391e-05 
-3.21049e-06 
-3.87437e-07 
0.000348399 
9.29008e-05 
0.00710424 
8.988e-05 
0.000434931 
0.00064125 
0.000156499 
0.0218929 
6.06964e-05 
0.000269224 
0.00718605 
5.28192e-05 
0.0107125 
0.00018109 
0.000257654 
0.000254865 
0.00943929 
5.65693e-05 
0.00882251 
0.000118582 
0.012747 
0.0140267 
-4.90247e-07 
-3.21631e-06 
6.92895e-07 
-3.21659e-06 
1.55386e-05 
-2.31539e-06 
2.84119e-06 
9.36555e-07 
-2.37709e-06 
-3.7616e-07 
5.86401e-05 
9.09991e-05 
2.78842e-05 
9.93375e-05 
4.42042e-05 
2.76148e-05 
8.71183e-05 
3.28942e-05 
9.3152e-05 
8.58943e-05 
2.94028e-05 
3.64205e-05 
0.000100537 
9.77208e-05 
2.47421e-05 
9.24135e-05 
0.000100583 
7.2168e-05 
1.69557e-05 
1.79727e-05 
1.83708e-05 
0.000115587 
6.52463e-05 
4.61875e-05 
5.61502e-05 
5.68446e-05 
6.86339e-05 
3.99261e-05 
2.85845e-05 
8.20331e-05 
4.43149e-05 
3.0667e-05 
8.25367e-05 
3.3097e-05 
3.22355e-05 
6.95855e-05 
4.13323e-05 
8.17703e-05 
5.64163e-05 
5.26411e-05 
4.56129e-05 
9.76852e-05 
5.51215e-05 
0.0368318 
0.0335211 
0.0532923 
0.0440094 
0.0640458 
0.0813265 
0.0206992 
0.0267002 
0.0310695 
0.02131 
0.0208677 
0.0293115 
0.0313275 
0.0570503 
0.074435 
0.0842618 
0.0350049 
0.0929477 
0.0545305 
0.0377909 
0.0293635 
0.0886548 
0.0317313 
0.0768272 
0.034171 
0.0505869 
0.0171007 
0.0679169 
0.0529921 
0.0558903 
-0.00018774 
0.0540231 
-9.61427e-05 
1.60938e-05 
0.0472031 
-9.98138e-05 
2.98813e-05 
-7.68974e-05 
4.1753e-05 
0.0108191 
0.0425855 
-0.000169536 
4.57921e-05 
-0.000123577 
0.017547 
-9.24163e-05 
0.0103669 
-6.90042e-05 
0.000152924 
-3.26883e-05 
0.0106177 
0.0173113 
-4.58136e-06 
1.07943e-06 
-2.93772e-06 
2.9066e-05 
-2.30515e-06 
-1.34619e-06 
1.21654e-07 
2.09457e-05 
7.18051e-07 
-4.15069e-06 
-1.21402e-07 
-4.32211e-07 
2.5582e-05 
-5.95265e-06 
-1.9366e-06 
6.33924e-07 
1.81881e-05 
1.16487e-06 
-1.03551e-05 
7.79052e-05 
-1.88375e-05 
5.70215e-05 
0.0214487 
-1.70434e-05 
0.000132087 
0.00806277 
0.000132069 
-5.71191e-06 
0.0127891 
0.000150115 
8.75942e-05 
-3.60938e-05 
0.00776326 
-1.48762e-05 
0.000204944 
0.000966122 
0.0135167 
-4.66225e-07 
-2.99304e-06 
1.93594e-05 
-1.55172e-06 
1.62563e-05 
-7.53343e-07 
5.53753e-08 
-8.37068e-07 
1.56611e-05 
-1.29393e-06 
9.98455e-06 
-3.33011e-07 
-4.27813e-06 
1.33395e-05 
-3.30239e-06 
1.48419e-06 
-7.64009e-07 
2.20894e-06 
-2.09689e-07 
9.24134e-06 
0.000229279 
0.00022085 
9.15779e-05 
1.81329e-05 
0.0405039 
0.000494518 
8.37158e-05 
0.02994 
0.000307068 
0.0133705 
8.84798e-05 
0.0175888 
0.000407873 
0.0129797 
0.000458261 
0.00013001 
0.000136869 
0.0179198 
0.000284934 
0.000699488 
-4.53874e-06 
-2.67203e-06 
-3.39128e-07 
2.5216e-05 
-1.3341e-06 
-3.98997e-06 
-2.65727e-06 
1.10189e-05 
1.64904e-05 
-3.43311e-06 
-2.25195e-06 
-1.07419e-05 
-7.90659e-08 
-2.35023e-06 
-5.97608e-07 
-1.76174e-06 
-1.0877e-06 
0.0379547 
0.0240159 
0.00555386 
3.54176e-06 
0.000517229 
6.46025e-05 
0.000194772 
3.59806e-05 
0.000175721 
0.0157548 
0.000173792 
0.00107244 
0.00975872 
5.17078e-05 
7.68562e-05 
0.0108096 
0.000193787 
0.000630039 
9.5206e-07 
3.94942e-05 
0.00342373 
0.000278266 
-6.63376e-07 
-1.08098e-06 
1.86379e-06 
1.32068e-05 
2.11073e-06 
-3.43592e-06 
5.9795e-06 
2.97472e-06 
1.82774e-06 
1.26482e-05 
-4.31142e-06 
-3.76604e-06 
3.45023e-06 
1.85278e-06 
-2.40764e-06 
2.67321e-05 
6.19715e-05 
6.54622e-05 
3.66851e-05 
4.11135e-05 
7.75623e-05 
4.21534e-05 
9.87591e-05 
6.75939e-05 
5.10156e-05 
9.2626e-05 
2.00021e-05 
0.000113211 
9.75258e-05 
9.3046e-05 
8.39312e-05 
2.15676e-05 
9.21045e-05 
0.000108675 
3.88396e-05 
9.07564e-05 
8.7187e-05 
5.63662e-05 
2.85414e-05 
5.0073e-05 
2.85239e-05 
2.68633e-05 
3.19275e-05 
8.80471e-05 
9.22371e-05 
0.000115402 
0.000109573 
9.2659e-05 
6.41644e-05 
4.4867e-05 
3.40954e-05 
2.7009e-05 
3.71788e-05 
3.9918e-05 
2.0308e-05 
4.20631e-05 
ITEM: TIMESTEP
5600000
ITEM: NUMBER OF ATOMS
896
ITEM: BOX BOUNDS pp pp ff
-1.7300000000000001e+01 1.6899999999999999e+01
-1.8300000000000001e+01 1.7800000000000001e+01
-5.0000000000000000e+01 5.0000000000000000e+01
ITEM: ATOMS q 
0.0718634 
0.0223939 
0.0554287 
0.0425301 
0.023751 
0.0149006 
0.0489572 
0.0175916 
0.0303164 
0.0577131 
0.0809691 
0.0433512 
0.0154647 
0.0564163 
0.0434768 
0.0160813 
0.0145339 
0.0663378 
0.0447094 
0.05652 
0.0323767 
0.0433115 
0.0655957 
0.0519959 
0.0572122 
0.0311986 
0.0401543 
0.0201617 
0.000110175 
0.0167338 
0.000488421 
0.000103532 
0.00846916 
7.18088e-05 
0.000581022 
0.000254382 
0.000297029 
0.00100971 
0.000505044 
0.0031234 
0.000108662 
0.00377725 
5.16131e-05 
5.49791e-05 
0.000120344 
4.78676e-05 
0.00484238 
-5.01799e-06 
1.70354e-05 
-4.82786e-06 
-7.69858e-07 
2.8229e-06 
-4.26022e-06 
2.63504e-06 
1.86496e-05 
1.09961e-06 
-4.01847e-06 
-2.8467e-07 
5.63701e-07 
1.54554e-05 
-1.57844e-06 
2.83084e-06 
2.9697e-06 
5.43894e-07 
0.0035441 
6.28712e-05 
7.24966e-05 
9.17501e-05 
0.000186551 
0.041507 
0.000244844 
4.05252e-05 
0.03065 
0.000161058 
0.00602958 
0.000146141 
0.0188478 
8.56516e-05 
0.000362052 
0.000351131 
0.000125564 
0.0125287 
0.000116247 
0.0144506 
0.000136022 
1.10406e-06 
3.37669e-06 
4.34837e-07 
-5.18551e-06 
4.0314e-05 
-1.12183e-06 
3.34591e-05 
-1.30228e-06 
-2.09282e-06 
4.13832e-06 
-2.51893e-06 
3.03598e-05 
1.89389e-06 
-2.75813e-06 
1.57221e-07 
-1.50122e-07 
-1.83373e-06 
0.0125307 
0.0163795 
4.19607e-05 
8.97142e-05 
0.000936719 
0.00031443 
2.16368e-05 
1.93613e-05 
0.000349363 
7.58198e-05 
0.0123075 
0.000109278 
0.0189976 
0.000299229 
0.00687056 
0.000206875 
0.000171193 
1.90123e-05 
0.0119308 
-4.008e-05 
0.000546204 
0.0244191 
0.0104684 
1.27252e-06 
-8.37486e-07 
2.53279e-05 
6.10435e-07 
1.91123e-05 
-2.03557e-07 
-3.40786e-09 
2.41986e-06 
2.35267e-05 
-2.46688e-06 
1.64527e-06 
-3.88648e-06 
-1.2357e-07 
3.28679e-05 
-2.86094e-06 
8.72723e-07 
-3.9029e-06 
3.76797e-05 
5.62017e-07 
3.81174e-06 
3.61237e-05 
5.30045e-08 
-1.93878e-06 
4.55098e-06 
9.41555e-05 
0.000139543 
0.000223465 
3.67977e-05 
0.0124769 
6.61498e-05 
6.43014e-05 
0.0208206 
6.66913e-05 
3.71495e-05 
0.0219026 
3.77629e-05 
0.0285148 
-8.10927e-05 
0.00014695 
-5.39092e-05 
0.0292631 
0.000140162 
0.0186361 
-5.08219e-06 
0.0107288 
0.0124735 
1.99413e-06 
-1.44528e-06 
1.27092e-06 
-9.8304e-07 
-4.214e-06 
3.65909e-05 
-5.14833e-07 
-3.24063e-06 
-2.14702e-06 
-7.16612e-07 
3.74257e-05 
2.22622e-06 
3.50678e-05 
0.000123364 
2.14249e-05 
2.76435e-05 
2.31048e-05 
3.90452e-05 
0.000108049 
0.00014329 
0.000127905 
0.000132102 
0.000140832 
4.23474e-05 
4.54849e-05 
6.06831e-05 
9.0694e-05 
0.000134935 
0.000120361 
0.000126103 
8.15786e-05 
6.98471e-05 
0.000135003 
0.000114354 
4.89119e-05 
0.000125729 
6.05926e-05 
7.1132e-05 
0.000103437 
5.03023e-05 
0.000142776 
8.91116e-05 
6.89923e-05 
7.50947e-05 
5.99301e-05 
9.27403e-05 
8.02744e-05 
7.0923e-05 
0.000127164 
5.51824e-05 
6.84415e-05 
6.57684e-05 
0.000103029 
0.0585196 
0.0474484 
0.0622472 
0.0442396 
0.0126194 
0.0556306 
0.0577522 
0.0303397 
0.0227591 
0.027658 
0.0580549 
0.0215086 
0.0342627 
0.0356511 
0.0701625 
0.0572055 
0.0385048 
0.0545372 
0.0312781 
0.0555719 
0.0497479 
0.0514733 
0.0723583 
0.0314207 
0.0314559 
0.0059483 
0.0496973 
0.059468 
0.0256721 
0.0310069 
0.000216179 
8.25203e-05 
2.88966e-05 
0.019893 
0.000250886 
9.5672e-05 
-6.22671e-06 
-3.40624e-06 
0.00793098 
0.0121248 
0.000140432 
0.000103206 
2.6565e-05 
0.012484 
0.000121796 
0.000453357 
8.20881e-05 
-3.47629e-05 
0.00604829 
0.010242 
0.0173643 
3.18306e-07 
3.4219e-07 
-1.23902e-06 
-3.75573e-06 
2.54659e-05 
-1.50671e-06 
3.77541e-05 
-1.89602e-07 
1.55038e-06 
3.39167e-06 
5.12737e-07 
-2.44446e-06 
2.88527e-07 
2.3865e-05 
1.5681e-06 
1.3351e-06 
3.02798e-05 
2.47381e-06 
-6.02402e-05 
-3.68887e-05 
3.35972e-05 
-9.15578e-05 
0.0358544 
-0.00011192 
-0.000120727 
-6.56547e-05 
0.000183977 
0.000102883 
-8.64898e-06 
0.0137094 
-2.83221e-05 