ITEM: TIMESTEP
5000000
ITEM: NUMBER OF ATOMS
896
ITEM: BOX BOUNDS pp pp ff
-1.7300000000000001e+01 1.6899999999999999e+01
-1.8300000000000001e+01 1.7800000000000001e+01
-5.0000000000000000e+01 5.0000000000000000e+01
ITEM: ATOMS q 
0 
0 
0 
0 
0 
0 
0 
0 
0 
0 
0 
0 
0 
0 
0 
0 
0 
0 
0 
0 
0 
0 
0 
0 
0 
0 
0 
0 
0 
0 
0 
0 
0 
0 
0 
0 
0 
0 
0 
0 
0 
0 
0 
0 
0 
0 
0 
0 
0 
0 
0 
0 
0 
0 
0 
0 
0 
0 
0 
0 
0 
0 
0 
0 
0 
0 
0 
0 
0 
0 
0 
0 
0 
0 
0 
0 
0 
0 
0 
0 
0 
0 
0 
0 
0 
0 
0 
0 
0 
0 
0 
0 
0 
0 
0 
0 
0 
0 
0 
0 
0 
0 
0 
0 
0 
0 
0 
0 
0 
0 
0 
0 
0 
0 
0 
0 
0 
0 
0 
0 
0 
0 
0 
0 
0 
0 
0 
0 
0 
0 
0 
0 
0 
0 
0 
0 
0 
0 
0 
0 
0 
0 
0 
0 
0 
0 
0 
0 
0 
0 
0 
0 
0 
0 
0 
0 
0 
0 
0 
0 
0 
0 
0 
0 
0 
0 
0 
0 
0 
0 
0 
0 
0 
0 
0 
0 
0 
0 
0 
0 
0 
0 
0 
0 
0 
0 
0 
0 
0 
0 
0 
0 
0 
0 
0 
0 
0 
0 
0 
0 
0 
0 
0 
0 
0 
0 
0 
0 
0 
0 
0 
0 
0 
0 
0 
0 
0 
0 
0 
0 
0 
0 
0 
0 
0 
0 
0 
0 
0 
0 
0 
0 
0 
0 
0 
0 
0 
0 
0 
0 
0 
0 
0 
0 
0 
0 
0 
0 
0 
0 
0 
0 
0 
0 
0 
0 
0 
0 
0 
0 
0 
0 
0 
0 
0 
0 
0 
0 
0 
0 
0 
0 
0 
0 
0 
0 
0 
0 
0 
0 
0 
0 
0 
0 
0 
0 
0 
0 
0 
0 
0 
0 
0 
0 
0 
0 
0 
0 
0 
0 
0 
0 
0 
0 
0 
0 
0 
0 
0 
0 
0 
0 
0 
0 
0 
0 
0 
0 
0 
0 
0 
0 
0 
0 
0 
0 
0 
0 
0 
0 
0 
0 
0 
0 
0 
0 
0 
0 
0 
0 
0 
0 
0 
0 
0 
0 
0 
0 
0 
0 
0 
0 
0 
0 
0 
0 
0 
0 
0 
0 
0 
0 
0 
0 
0 
0 
0 
0 
0 
0 
0 
0 
0 
0 
0 
0 
0 
0 
0 
0 
0 
0 
0 
0 
0 
0 
0 
0 
0 
0 
0 
0 
0 
0 
0 
0 
0 
0 
0 
0 
0 
0 
0 
0 
0 
0 
0 
0 
0 
0 
0 
0 
0 
0 
0 
0 
0 
0 
0 
0 
0 
0 
0 
0 
0 
0 
0 
0 
0 
0 
0 
0 
0 
0 
0 
0 
0 
0 
0 
0 
0 
0 
0 
0 
0 
0 
0 
0 
0 
0 
0 
0 
0 
0 
0 
0 
0 
0 
0 
0 
0 
0 
0 
0 
0 
0 
0 
0 
0 
0 
0 
0 
0 
0 
0 
0 
0 
0 
0 
0 
0 
0 
0 
0 
0 
0 
0 
0 
0 
0 
0 
0 
0 
0 
0 
0 
0 
0 
0 
0 
0 
0 
0 
0 
0 
0 
0 
0 
0 
0 
0 
0 
0 
0 
0 
0 
0 
0 
0 
0 
0 
0 
0 
0 
0 
0 
0 
0 
0 
0 
0 
0 
0 
0 
0 
0 
0 
0 
0 
0 
0 
0 
0 
0 
0 
0 
0 
0 
0 
0 
0 
0 
0 
0 
0 
0 
0 
0 
0 
0 
0 
0 
0 
0 
0 
0 
0 
0 
0 
0 
0 
0 
0 
0 
0 
0 
0 
0 
0 
0 
0 
0 
0 
0 
0 
0 
0 
0 
0 
0 
0 
0 
0 
0 
0 
0 
0 
0 
0 
0 
0 
0 
0 
0 
0 
0 
0 
0 
0 
0 
0 
0 
0 
0 
0 
0 
0 
0 
0 
0 
0 
0 
0 
0 
0 
0 
0 
0 
0 
0 
0 
0 
0 
0 
0 
0 
0 
0 
0 
0 
0 
0 
0 
0 
0 
0 
0 
0 
0 
0 
0 
0 
0 
0 
0 
0 
0 
0 
0 
0 
0 
0 
0 
0 
0 
0 
0 
0 
0 
0 
0 
0 
0 
0 
0 
0 
0 
0 
0 
0 
0 
0 
0 
0 
0 
0 
0 
0 
0 
0 
0 
0 
0 
0 
0 
0 
0 
0 
0 
0 
0 
0 
0 
0 
0 
0 
0 
0 
0 
0 
0 
0 
0 
0 
0 
0 
0 
0 
0 
0 
0 
0 
0 
0 
0 
0 
0 
0 
0 
0 
0 
0 
0 
0 
0 
0 
0 
0 
0 
0 
0 
0 
0 
0 
0 
0 
0 
0 
0 
0 
0 
0 
0 
0 
0 
0 
0 
0 
0 
0 
0 
0 
0 
0 
0 
0 
0 
0 
0 
0 
0 
0 
0 
0 
0 
0 
0 
0 
0 
0 
0 
0 
0 
0 
0 
0 
0 
0 
0 
0 
0 
0 
0 
0 
0 
0 
0 
0 
0 
0 
0 
0 
0 
0 
0 
0 
0 
0 
0 
0 
0 
0 
0 
0 
0 
0 
0 
0 
0 
0 
0 
0 
0 
0 
0 
0 
0 
0 
0 
0 
0 
0 
0 
0 
0 
0 
0 
0 
0 
0 
0 
0 
0 
0 
0 
0 
0 
0 
0 
0 
0 
0 
0 
0 
0 
0 
0 
0 
0 
0 
0 
0 
0 
0 
0 
0 
0 
0 
0 
0 
0 
0 
0 
0 
0 
0 
0 
0 
0 
0 
0 
0 
0 
0 
0 
0 
0 
0 
0 
0 
0 
0 
0 
0 
0 
0 
ITEM: TIMESTEP
5200000
ITEM: NUMBER OF ATOMS
896
ITEM: BOX BOUNDS pp pp ff
-1.7300000000000001e+01 1.6899999999999999e+01
-1.8300000000000001e+01 1.7800000000000001e+01
-5.0000000000000000e+01 5.0000000000000000e+01
ITEM: ATOMS q 
5.59421e-05 
0.000146346 
3.98624e-05 
4.18277e-05 
0.000232786 
6.66273e-05 
0.00019555 
0.000115365 
0.000197291 
0.000190366 
4.45896e-05 
8.23612e-05 
0.000113462 
0.000157342 
6.83994e-05 
7.68044e-05 
7.77995e-05 
0.00019864 
0.000185808 
8.30407e-05 
6.25813e-05 
0.000249951 
9.63897e-05 
8.5215e-05 
0.000176061 
8.21643e-05 
0.000226275 
8.36908e-05 
0.000130496 
0.000221796 
7.91824e-05 
8.09429e-05 
0.00021432 
0.000184999 
5.81948e-05 
6.25174e-05 
6.79367e-05 
8.67646e-05 
9.87786e-05 
0.000162578 
0.000120993 
7.03126e-05 
2.50091e-05 
6.42171e-06 
4.9028e-06 
5.15515e-06 
6.71527e-06 
4.74942e-06 
3.54646e-06 
4.72646e-06 
5.14063e-06 
4.17867e-06 
2.48298e-05 
7.07219e-06 
2.70986e-05 
4.54657e-06 
5.50333e-06 
4.39288e-06 
7.36607e-06 
-7.1959e-05 
-0.00454637 
-4.77e-05 
-0.00853762 
-0.000203292 
-0.000664039 
-7.42568e-05 
-0.010467 
-0.000126337 
-0.00810624 
-0.00030833 
-4.34328e-05 
-0.000134911 
-0.00577249 
-2.74114e-05 
-0.021752 
-0.000255676 
-3.42408e-05 
-0.000310715 
-0.000230812 
-0.00522653 
-0.00768063 
9.79772e-06 
5.80556e-06 
7.92338e-06 
8.94733e-06 
7.38191e-06 
7.55332e-06 
6.11354e-05 
7.64172e-06 
3.29002e-05 
8.87222e-06 
4.28377e-05 
1.11144e-05 
6.49097e-06 
4.56927e-06 
4.69817e-06 
7.76012e-06 
4.96935e-05 
4.81053e-06 
-0.000278245 
2.76556e-05 
-0.000910737 
-0.000188213 
-0.0228228 
-1.37752e-05 
-0.0135749 
-0.00014326 
-0.000309194 
-0.000360818 
-0.000106215 
-0.021264 
-8.69816e-05 
-1.31567e-06 
-0.0235913 
-0.000303432 
-9.06357e-05 
2.07902e-05 
-0.0363773 
-0.0272295 
5.18459e-06 
6.65082e-06 
3.33673e-05 
5.18735e-06 
4.94404e-06 
2.82161e-06 
5.21608e-06 
4.35312e-06 
4.36065e-05 
6.99855e-06 
3.78461e-06 
3.53339e-05 
6.1376e-06 
4.36645e-06 
1.14524e-05 
5.38699e-05 
6.90615e-06 
4.67242e-06 
-0.00912667 
-0.0147514 
-6.29317e-05 
-8.46516e-05 
-0.0102632 
-0.000135092 
-0.00939074 
-7.10732e-06 
-4.50607e-05 
-0.000402867 
-0.0130443 
-1.6238e-05 
-2.39775e-05 
-0.000139419 
-0.000159945 
-0.0151513 
3.20404e-05 
2.108e-05 
-6.04181e-06 
-0.0310737 
-3.3166e-05 
8.60442e-06 
4.62223e-05 
5.64056e-06 
4.76454e-06 
9.36637e-06 
5.74142e-06 
6.21114e-06 
5.2365e-06 
6.37177e-06 
5.11335e-05 
6.51787e-06 
6.15329e-06 
5.12981e-06 
4.31522e-06 
6.38321e-05 
4.98348e-06 
3.58265e-06 
-0.0231726 
-0.0212611 
-0.000176373 
-4.6868e-05 
-0.0222207 
-0.00020766 
-2.84211e-05 
3.34156e-06 
-0.0148056 
4.63952e-07 
-0.0311196 
0.000100378 
-1.76761e-07 
-3.27853e-05 
-0.0200976 
-5.63131e-05 
-1.03842e-06 
-3.11019e-05 
7.03453e-05 
-0.0251686 
4.96348e-05 
-0.0536475 
-0.0506897 
-0.055513 
-0.06392 
-0.05155 
-0.0307115 
-0.0449469 
-0.0333675 
-0.0747101 
-0.0746184 
-0.0439054 
-0.0669906 
-0.0194542 
-0.0387137 
-0.0509074 
-0.0412564 
-0.0498239 
-0.0807503 
-0.0309444 
-0.0397332 
-0.0405917 
-0.0546978 
-0.0441528 
-0.0458608 
-0.0361206 
-0.0599722 
-0.0337024 
-0.0629045 
6.98612e-05 
0.000186457 
0.000106242 
0.000152431 
7.10212e-05 
0.000169942 
0.000132974 
8.97847e-05 
0.000210064 
0.000186602 
0.000100603 
0.000150525 
9.91278e-05 
8.29416e-05 
0.000102298 
0.000136654 
8.84249e-05 
0.000117676 
0.000106251 
0.000103067 
3.14321e-05 
0.000182505 
5.22064e-05 
0.000190651 
0.000207364 
5.83632e-05 
2.98909e-05 
0.000158855 
0.000194714 
4.24152e-05 
0.000209877 
0.000198773 
6.29988e-05 
0.000117642 
0.00019911 
6.69925e-05 
0.000102552 
0.000177372 
8.9253e-05 
0.000132874 
0.000186985 
7.06146e-06 
5.29361e-06 
7.53421e-06 
4.76946e-05 
7.13917e-06 
5.51242e-05 
9.36552e-06 
5.06567e-06 
4.07852e-06 
3.49374e-05 
5.68628e-06 
5.86039e-06 
8.44227e-06 
2.70809e-05 
6.41784e-06 
4.42045e-06 
8.75985e-06 
7.65881e-06 
3.52818e-05 
-0.0258705 
-0.017742 
-0.000452575 
-0.026797 
-9.1032e-05 
-0.000171694 
-0.000226054 
-0.0112483 
-2.44329e-05 
-0.0215748 
-2.42438e-05 
-0.000625114 
-0.000839897 
-8.23687e-05 
-2.11033e-05 
-0.000458819 
-0.000480986 
-5.6135e-05 
-0.0192745 
-0.000246582 
1.10648e-05 
5.45599e-05 
5.74766e-06 
5.40027e-05 
5.4166e-06 
5.65145e-06 
3.3239e-06 
6.10729e-06 
7.10645e-06 
7.438e-06 
4.52862e-06 
8.11397e-06 
5.24297e-05 
8.895e-06 
5.39785e-06 
5.75435e-06 
7.51498e-06 
-0.0254388 
-0.0221543 
-5.29797e-05 
-4.39817e-05 
-0.0157252 
5.30603e-05 
-0.0150607 
-1.419e-05 
-0.000128421 
-5.05292e-05 
-0.016872 
1.2211e-05 
-0.0222991 
-9.98918e-05 
-0.000177162 
-0.00020269 
-5.23544e-06 
-0.0182755 
-4.3552e-05 
-4.02534e-05 
-0.0274389 
-0.000163767 
-0.0108907 
8.59064e-06 
1.14746e-05 
1.04496e-05 
2.13091e-05 
6.87868e-06 
5.78827e-06 
3.27982e-06 
6.89251e-06 
8.02922e-06 
2.30563e-05 
9.55075e-06 
5.43632e-06 
4.95096e-06 
2.88328e-05 
6.0542e-06 
7.00761e-06 
7.10068e-06 
-0.000642097 
-0.000785159 
-9.76073e-05 
-0.00865852 
-0.000143607 
-0.00888424 
-0.000422416 
-0.000115188 
-0.0135671 
-8.41076e-05 
-0.000540579 
-0.0148513 
-0.000105193 
-5.69675e-05 
-0.0104153 
-6.77361e-05 
-0.00030522 
-0.000316917 
-7.90143e-05 
6.26817e-05 
-0.0161696 
-0.0206559 
4.63927e-06 
7.35646e-06 
4.47631e-05 
8.76361e-06 
5.223e-06 
7.09274e-06 
7.42246e-06 
6.4966e-06 
4.18935e-06 
6.24148e-06 
5.3436e-06 
4.66075e-05 
7.89977e-06 
5.7592e-05 
8.74596e-06 
7.63935e-06 
7.42185e-06 
-0.000169833 
-0.00900565 
-0.000346646 
-0.000114974 
-0.0156346 
-0.000114453 
-0.000228219 
-0.000142466 
-0.0135662 
-8.12647e-05 
-0.0155497 
-5.2461e-05 
-0.000182556 
-0.000129098 
-0.000128529 
-0.0306502 
-3.14514e-05 
-0.000199674 
-0.0240311 
1.09764e-05 
-0.0328928 
-0.0651435 
-0.050422 
-0.0821912 
-0.0396172 
-0.0461936 
-0.0353061 
-0.0261486 
-0.0612014 
-0.037496 
-0.0322679 
-0.0536036 
-0.0472298 
-0.0759806 
-0.0768208 
-0.0633171 
-0.0425009 
-0.0648161 
-0.0697915 
-0.0539458 
-0.0635231 
-0.0144561 
-0.064549 
-0.0318392 
-0.0484132 
-0.0285577 
-0.0664044 
-0.0606677 
8.05489e-05 
0.000186373 
5.48866e-05 
5.95504e-05 
0.000106639 
0.000187392 
6.75056e-05 
5.94769e-05 
0.000194138 
0.000119514 
0.000232597 
0.0001391 
0.00024557 
7.44813e-05 
4.21933e-05 
0.000198564 
8.25932e-05 
0.000196911 
9.02633e-05 
0.00023233 
5.88433e-05 
9.91885e-05 
8.76753e-05 
7.58334e-05 
0.00016309 
0.000108362 
0.000211148 
5.62645e-05 
8.42597e-05 
0.00013564 
0.000131181 
0.000143523 
8.61462e-05 
0.000208139 
4.62131e-05 
0.000238665 
0.000197179 
4.35124e-05 
0.000199877 
0.000195114 
0.00018077 
1.42462e-05 
9.62624e-06 
6.27473e-06 
5.51846e-06 
7.03374e-06 
5.47618e-06 
6.11782e-06 
4.94371e-06 
4.37063e-06 
6.99941e-06 
5.20338e-05 
5.80816e-06 
2.23002e-05 
7.2258e-06 
5.83111e-06 
7.74701e-06 
3.28389e-05 
-0.000453801 
-0.0224971 
-5.58326e-05 
-0.000101762 
-0.000482511 
-0.0110953 
-0.000212037 
-0.0136001 
-8.912e-05 
-0.000544642 
-0.000135707 
-0.0222718 
-5.22218e-05 
-0.000202555 
-0.0165743 
-0.00568859 
-2.41204e-05 
-0.000190146 
-0.000161815 
-8.70906e-05 
-0.0342825 
-0.0165225 
2.33077e-05 
5.32665e-06 
8.73123e-06 
9.36232e-06 
4.13232e-06 
5.62467e-06 
6.04048e-06 
6.77237e-06 
6.02555e-06 
2.48574e-05 
5.35953e-06 
4.28278e-06 
6.90723e-06 
4.85857e-06 
4.70989e-06 
2.99839e-06 
-3.17219e-05 
-0.0101964 
-0.000113563 
-0.011858 
-4.81024e-05 
-5.41987e-06 
-0.000578592 
-0.000154681 
-0.00327923 
-2.99928e-05 
-3.23524e-05 
-0.000167046 
-0.00012193 
-0.0113661 
-0.00109554 
-0.000496536 
-4.82599e-05 
-0.000194632 
-0.00732798 
3.51936e-06 
4.83032e-06 
8.55811e-06 
5.22936e-05 
5.24449e-06 
3.68034e-05 
5.21666e-06 
7.77459e-06 
5.36649e-06 
3.24811e-06 
4.83696e-06 
3.78431e-06 
6.06407e-05 
3.46841e-06 
4.11654e-05 
7.43646e-06 
9.20396e-06 
7.63792e-06 
-0.0189735 
-8.26134e-05 
-3.89702e-05 
-1.33403e-05 
-0.0194197 
6.33575e-05 
-0.0275825 
-0.00036778 
-0.000164577 
-0.0166375 
-0.00930308 
7.38691e-06 
7.88941e-05 
-0.0218013 
3.59646e-05 
6.72437e-05 
-0.0107108 
6.93507e-05 
1.01943e-05 
-7.93761e-05 
-0.0305721 
-0.000102944 
6.26866e-06 
2.52079e-06 
2.63305e-05 
9.12496e-06 
4.15563e-06 
5.08589e-06 
2.00538e-05 
5.00868e-06 
4.73671e-06 
8.87537e-06 
3.22998e-05 
1.21125e-05 
3.79499e-05 
8.19864e-06 
5.12643e-06 
4.12109e-06 
2.2197e-05 
7.53356e-06 
3.11796e-05 
6.90322e-06 
-0.00882944 
-0.000112825 
-0.00011589 
-0.000337402 
-0.0212971 
3.55975e-06 
-0.00924467 
3.55701e-05 
-0.000778715 
-0.000336117 
-0.000227853 
4.95006e-06 
-0.0288548 
-7.13767e-05 
-2.21591e-05 
-9.14482e-05 
-0.00010967 
-0.00808138 
-6.83238e-05 
-0.0339883 
-0.072261 
-0.0411295 
-0.0540549 
-0.0312516 
-0.0435897 
-0.0569495 
-0.0509705 
-0.0173095 
-0.0540594 
-0.0612067 
-0.025852 
-0.0409924 
-0.0147018 
-0.0467094 
-0.0411294 
-0.0559018 
-0.0398203 
-0.0339446 
-0.0532426 
-0.0489578 
-0.0350002 
-0.0171805 
-0.0544738 
-0.0658164 
-0.0508407 
-0.0327817 
-0.0513963 
-0.0183842 
-0.0432152 
8.17814e-05 
0.000118544 
0.000137952 
0.00014682 
6.33028e-05 
0.000120859 
9.63388e-05 
9.23953e-05 
5.91171e-05 
0.000174456 
0.000177804 
9.59246e-05 
0.000172466 
8.38034e-05 
6.98891e-05 
0.000146545 
6.9625e-05 
0.00020804 
0.000119305 
0.000115022 
0.000118561 
0.000124733 
0.000193625 
6.75956e-05 
0.000183381 
5.81206e-05 
9.23867e-05 
0.000213164 
0.000185756 
5.69843e-05 
0.000198727 
6.21256e-05 
0.00019622 
0.000247208 
0.000213298 
3.98578e-05 
7.70358e-05 
3.4733e-05 
0.00015412 
3.62948e-05 
5.14837e-05 
0.000214453 
0.000209506 
2.40349e-06 
4.17535e-06 
2.94234e-06 
5.66224e-05 
3.35954e-06 
4.20341e-05 
4.40384e-06 
6.71019e-06 
6.7745e-06 
4.47552e-06 
3.62333e-06 
8.17306e-06 
5.81835e-05 
5.14432e-06 
5.6617e-06 
6.01323e-06 
7.63015e-06 
3.6164e-05 
-0.0104875 
-0.0104174 
2.67125e-05 
1.2787e-05 
-0.0221972 
-2.67903e-05 
-0.0121576 
1.87889e-05 
-2.99537e-05 
-4.10734e-05 
-0.0164567 
-0.000434748 
-1.83629e-05 
-0.000100459 
-0.000169795 
-0.0176264 
3.15286e-06 
-6.92839e-05 
-0.000105512 
-0.0217894 
-0.000223324 
6.03241e-06 
3.84606e-05 
5.65429e-06 
4.49516e-06 
5.35795e-06 
5.59432e-06 
6.19285e-06 
4.55328e-05 
6.89762e-06 
7.18431e-06 
5.00955e-06 
6.55041e-06 
5.87087e-06 
3.27602e-05 
6.19408e-06 
4.38065e-06 
6.55295e-06 
-0.0126465 
-0.0153583 
-0.000302593 
-0.000132985 
-0.00815387 
-7.9102e-05 
-0.00650549 
-0.000182884 
-0.0001972 
-8.81591e-05 
-0.0084374 
-3.20065e-05 
-0.00634992 
-0.000462662 
-6.99371e-05 
-0.00673211 
-5.09692e-05 
-0.000496568 
-0.000238785 
-3.23213e-05 
-0.016215 
-0.000101242 
4.46654e-05 
-0.0270216 
-0.0119546 
5.04118e-06 
5.45693e-06 
7.70832e-06 
8.59885e-06 
6.14876e-06 
7.1968e-06 
5.09539e-06 
2.51372e-05 
5.29954e-06 
5.37701e-05 
4.93543e-06 
4.14946e-05 
7.11015e-06 
1.04474e-05 
7.08384e-06 
4.70586e-06 
6.91075e-06 
-6.28701e-05 
-0.000247494 
-0.0196351 
-0.000388003 
-0.0221106 
-5.75323e-05 
-0.000115482 
-0.000493105 
-0.00550585 
-0.00893513 
-8.74151e-05 
-9.65633e-05 
-0.000255037 
-0.000337503 
-0.0221375 
-0.000101758 
-4.65933e-05 
-0.000347941 
-0.000195005 
3.22865e-05 
-0.0141171 
-0.00866564 
5.03942e-06 
5.51272e-06 
5.89346e-06 
1.1042e-05 
1.15442e-05 
7.99786e-06 
7.48506e-06 
7.63213e-06 
4.46757e-06 
4.91447e-06 
6.00051e-06 
1.56668e-05 
7.54734e-06 
1.44356e-05 
8.98812e-06 
-0.000612399 
-0.000113215 
-7.72561e-05 
-0.00845855 
-0.000812741 
-9.29297e-05 
9.21209e-06 
-0.000793629 
-0.000719194 
-5.2831e-05 
-0.000160841 
-0.000549455 
-0.01013 
-0.000225543 
-6.32301e-05 
-0.000766634 
-0.0274058 
-0.0399908 
-0.0429592 
-0.038362 
-0.0230221 
-0.0546419 
-0.0625748 
-0.0541291 
-0.0400299 
-0.0539884 
-0.0383575 
-0.0517384 
-0.0518726 
-0.0486561 
-0.0525251 
-0.0411191 
-0.0689343 
-0.067108 
-0.0540638 
-0.0200675 
-0.0200536 
-0.0651095 
-0.0236108 
-0.0646909 
-0.0604529 
-0.0625491 
-0.0755488 
-0.0331729 
-0.0389046 
-0.0344875 
ITEM: TIMESTEP
5400000
ITEM: NUMBER OF ATOMS
896
ITEM: BOX BOUNDS pp pp ff
-1.7300000000000001e+01 1.6899999999999999e+01
-1.8300000000000001e+01 1.7800000000000001e+01
-5.0000000000000000e+01 5.0000000000000000e+01
ITEM: ATOMS q 
2.60415e-05 
6.84252e-05 
1.88218e-05 
1.99483e-05 
0.00010919 
3.19044e-05 
9.20799e-05 
5.3794e-05 
9.28932e-05 
9.04896e-05 
2.02479e-05 
3.93107e-05 
5.37589e-05 
7.44946e-05 
3.27808e-05 
3.70643e-05 
3.72105e-05 
9.39706e-05 
8.71304e-05 
3.88908e-05 
2.97458e-05 
0.000118532 
4.4457e-05 
3.93217e-05 
8.38507e-05 
3.81531e-05 
0.000107026 
3.87715e-05 
6.07349e-05 
0.000104174 
3.75026e-05 
3.77978e-05 
0.000100884 
8.73561e-05 
2.72929e-05 
2.85488e-05 
3.17751e-05 
4.10676e-05 
4.70792e-05 
7.66433e-05 
5.73565e-05 
3.3814e-05 
1.22413e-05 
3.6267e-06 
2.81259e-06 
3.83932e-06 
4.43913e-06 
3.02257e-06 
8.52576e-07 
3.12023e-06 
3.75438e-06 
3.53794e-06 
1.12858e-05 
5.54919e-06 
1.16769e-05 
3.60831e-06 
4.82768e-06 
3.10891e-06 
5.25581e-06 
-7.45561e-05 
-0.00592823 
-6.06236e-05 
-0.00749131 
-0.000207957 
-0.00060657 
-7.00282e-05 
-0.0100285 
-0.000123039 
-0.00754238 
-0.000300387 
-4.51174e-05 
-0.000123637 
-0.00449472 
-2.58927e-05 
-0.0195332 
-0.000267434 
-3.20447e-05 
-0.000262875 
-0.00021255 
-0.00623089 
-0.00992371 
7.29989e-06 
5.14176e-06 
4.21366e-06 
6.11605e-06 
4.01438e-06 
5.10639e-06 
3.04341e-05 
2.2793e-06 
1.54484e-05 
6.05835e-06 
2.03852e-05 
7.67987e-06 
4.73841e-06 
1.44599e-06 
4.41788e-06 
5.22505e-06 
2.33069e-05 
4.67296e-06 
-0.000313766 
2.63789e-05 
-0.000686019 
-0.000114975 
-0.0217137 
-6.9153e-06 
-0.0138133 
-8.15165e-05 
-0.000257089 
-0.000303259 
-0.000106979 
-0.0173939 
-0.000118028 
1.68912e-05 
-0.0254238 
-0.000266003 
-9.06314e-05 
4.31471e-05 
-0.0326713 
-0.028933 
4.68916e-06 
5.30337e-06 
1.43632e-05 
3.78559e-06 
2.89167e-06 
5.58641e-07 
3.27309e-06 
2.4059e-06 
1.99382e-05 
6.07845e-06 
3.54386e-06 
1.62585e-05 
7.25736e-06 
3.93271e-06 
5.77878e-06 
2.53688e-05 
3.75681e-06 
2.40236e-06 
-0.00750723 
-0.0121333 
-0.000100991 
-0.000174949 
-0.0188845 
-9.27436e-05 
-0.00867968 
-1.21809e-05 
-3.68024e-05 
-0.000352666 
-0.0110945 
-8.96643e-06 
-0.000121859 
-0.000242382 
-0.000228093 
-0.0189507 
3.8788e-05 
1.36322e-06 
8.66054e-06 
-0.0162393 
-1.61103e-05 
6.58687e-06 
2.08301e-05 
5.10134e-06 
2.28248e-06 
8.84324e-06 
4.24573e-06 
5.1561e-06 
3.52452e-06 
7.79218e-07 
2.51182e-05 
3.23599e-06 
2.31248e-06 
3.52354e-06 
3.02871e-06 
3.02018e-05 
3.26961e-06 
2.51173e-06 
-0.0235466 
-0.0237919 
-0.000153737 
-0.000110362 
-0.0273191 
-0.000187989 
-2.79999e-05 
-3.02658e-05 
-0.0177148 
4.78813e-05 
-0.0260034 
9.94207e-05 
3.95965e-05 
-2.68598e-05 
-0.00912112 
2.04322e-06 
1.86035e-05 
1.62582e-05 
6.26125e-05 
-0.0306076 
4.27532e-05 
-0.0514005 
-0.0399255 
-0.0597018 
-0.0527646 
-0.0468483 
-0.0374389 
-0.0371457 
-0.0328048 
-0.0633183 
-0.0581447 
-0.0342075 
-0.0698052 
-0.0267869 
-0.0485506 
-0.0332783 
-0.0628484 
-0.0457845 
-0.0493131 
-0.0189695 
-0.0742607 
-0.0300939 
-0.0397077 
-0.0362605 
-0.0580693 
-0.0392486 
-0.0587245 
-0.0429075 
-0.0423321 
3.27098e-05 
8.82623e-05 
4.96633e-05 
7.11494e-05 
3.36854e-05 
8.0704e-05 
6.24999e-05 
4.26875e-05 
9.83578e-05 
8.64632e-05 
4.70832e-05 
7.07262e-05 
4.59246e-05 
3.81106e-05 
4.79999e-05 
6.42684e-05 
4.18089e-05 
5.56972e-05 
4.92849e-05 
4.80568e-05 
1.55823e-05 
8.57702e-05 
2.54719e-05 
8.92731e-05 
9.7041e-05 
2.78246e-05 
1.50775e-05 
7.42726e-05 
9.12207e-05 
2.03915e-05 
9.85579e-05 
9.35725e-05 
2.97853e-05 
5.55311e-05 
9.4039e-05 
3.1498e-05 
4.84435e-05 
8.36227e-05 
4.21319e-05 
6.30436e-05 
8.78197e-05 
8.0994e-06 
3.71019e-06 
5.72621e-06 
2.26301e-05 
4.09861e-06 
2.66233e-05 
4.94221e-06 
2.45641e-06 
1.76542e-06 
1.58325e-05 
4.47218e-06 
1.85594e-06 
3.46659e-06 
1.30322e-05 
2.8361e-06 
2.05996e-06 
4.11977e-06 
3.55406e-06 
1.71839e-05 
-0.0319721 
-0.0113526 
-0.000504306 
-0.0374396 
-0.00011546 
-0.000113585 
-0.000225122 
-0.0103808 
1.62686e-05 
-0.0139358 
-8.4767e-06 
-0.000431223 
-0.000894941 
-0.000127988 
-2.49155e-05 
-0.000584684 
-0.000288795 
-3.58864e-05 
-0.00983112 
-0.000155986 
5.79642e-06 
2.62895e-05 
4.28024e-06 
2.52868e-05 
5.15376e-06 
2.98713e-06 
2.77956e-06 
7.86141e-06 
6.83789e-06 
3.78871e-06 
2.27581e-06 
5.494e-06 
2.40618e-05 
7.69018e-06 
3.86106e-06 
4.82276e-06 
3.45792e-06 
-0.0178319 
-0.020806 
-5.48618e-05 
-7.48555e-05 
-0.0185456 
5.57363e-06 
-0.0165566 
-5.51279e-06 
-0.000195244 
-0.000137129 
-0.0234787 
-4.81576e-05 
-0.0265943 
-6.75193e-05 
-0.000119356 
-0.000121114 
-2.26372e-05 
-0.014555 
-3.36157e-05 
2.23103e-05 
-0.0186955 
-0.000105907 
-0.0111556 
6.17852e-06 
1.04438e-05 
1.16442e-05 
1.0548e-05 
3.98872e-06 
1.87088e-06 
2.05651e-06 
4.13903e-06 
6.31446e-06 
1.1048e-05 
8.23068e-06 
2.57053e-06 
3.09498e-06 
1.3994e-05 
3.35453e-06 
6.25308e-06 
5.00544e-06 
-0.0010281 
-0.000973286 
-0.000108267 
-0.00791862 
-0.000115019 
-0.00683641 
-0.00034673 
-0.00010916 
-0.0121767 
-7.47653e-05 
-0.00052039 
-0.0147684 
-0.000140353 
-5.02372e-05 
-0.0106398 
-8.74562e-05 
-0.00026386 
-0.000355727 
-0.000114939 
2.91853e-05 
-0.0133224 
-0.0159648 
2.67222e-06 
4.27291e-06 
2.08129e-05 
6.83028e-06 
2.87795e-06 
3.68365e-06 
6.29138e-06 
8.96887e-06 
2.09502e-06 
3.36684e-06 
3.98195e-06 
2.18353e-05 
7.09139e-06 
2.72156e-05 
7.56766e-06 
6.09852e-06 
5.04283e-06 
-0.000156068 
-0.00898046 
-0.000317065 
-9.54121e-05 
-0.0145644 
-0.000100259 
-0.000259312 
-0.000220149 
-0.0184357 
-0.000119913 
-0.0274225 
-7.23383e-05 
-0.0001827 
-0.000210916 
-0.000140286 
-0.038591 
-0.000111203 
-0.000292351 
-0.0293852 
4.39531e-06 
-0.0276653 
-0.075563 
-0.0533535 
-0.0566343 
-0.0293004 
-0.0537944 
-0.0325455 
-0.0232331 
-0.0409313 
-0.0570659 
-0.0242036 
-0.0576929 
-0.0559219 
-0.0479568 
-0.0730549 
-0.0496592 
-0.0561358 
-0.0572749 
-0.0640056 
-0.0528 
-0.0654929 
-0.0175754 
-0.0203084 
-0.0626118 
-0.0544396 
-0.0296245 
-0.0736692 
-0.0574052 
3.7323e-05 
8.68616e-05 
2.53416e-05 
2.78372e-05 
4.95392e-05 
8.84412e-05 
3.12638e-05 
2.802e-05 
9.12656e-05 
5.66584e-05 
0.000109617 
6.52666e-05 
0.000116107 
3.41737e-05 
1.92536e-05 
9.32279e-05 
3.81387e-05 
9.30407e-05 
4.28435e-05 
0.000109698 
2.72247e-05 
4.59507e-05 
4.09153e-05 
3.52318e-05 
7.68854e-05 
5.11871e-05 
0.000100151 
2.56716e-05 
3.93297e-05 
6.34387e-05 
6.17464e-05 
6.70984e-05 
3.91901e-05 
9.87102e-05 
2.1086e-05 
0.000112858 
9.38464e-05 
1.99046e-05 
9.50582e-05 
9.22042e-05 
8.55045e-05 
1.07668e-05 
4.96885e-06 
6.28964e-06 
3.76389e-06 
6.05239e-06 
3.40228e-06 
5.14105e-06 
4.83279e-06 
4.74828e-06 
7.25334e-06 
2.41668e-05 
3.22222e-06 
9.74139e-06 
4.9363e-06 
6.00557e-06 
6.20473e-06 
1.5337e-05 
-0.000420797 
-0.0153769 
-2.76118e-05 
-0.000129481 
-0.000625027 
-0.0181904 
-0.000280622 
-0.0224865 
-0.000116022 
-0.000633071 
-0.000218882 
-0.0254995 
-3.89763e-05 
-0.000245702 
-0.0168739 
-0.00523691 
-3.94531e-05 
-0.000145981 
-9.94656e-05 
-6.88125e-05 
-0.0336971 
-0.0220202 
1.03895e-05 
3.69238e-06 
7.83597e-06 
6.98767e-06 
3.13879e-06 
3.93113e-06 
4.64641e-06 
4.44337e-06 
3.47605e-06 
1.09052e-05 
3.25375e-06 
4.06574e-06 
4.60285e-06 
3.16904e-06 
3.18353e-06 
-1.54958e-07 
-3.65392e-05 
-0.00866889 
-0.000151241 
-0.0101057 
-7.09118e-05 
1.5305e-06 
-0.000734418 
-0.000206949 
-0.00481055 
-3.69425e-05 
-5.08689e-05 
-0.000207962 
-0.000209835 
-0.0168524 
-0.00121577 
-0.000532212 
-6.18544e-05 
-0.000270893 
-0.00959643 
2.04203e-06 
5.14998e-06 
6.04995e-06 
2.41467e-05 
3.97464e-06 
1.70133e-05 
1.51544e-06 
7.06253e-06 
3.99638e-06 
1.81825e-06 
7.82117e-06 
3.35872e-06 
2.74475e-05 
4.25094e-06 
1.80004e-05 
5.6506e-06 
6.7366e-06 
6.37319e-06 
-0.0128736 
-2.15512e-05 
4.39436e-06 
9.58998e-06 
-0.0184269 
4.60204e-05 
-0.0310359 
-0.000290707 
-0.000145868 
-0.0147522 
-0.0101259 
-6.1569e-06 
7.68021e-05 
-0.0416079 
-4.48642e-05 
8.52922e-05 
-0.0214137 
2.08885e-05 
3.04382e-05 
-0.000130417 
-0.0219352 
-0.000113096 
4.9004e-06 
2.79473e-06 
1.09124e-05 
9.71799e-06 
3.70095e-06 
3.72676e-06 
9.09073e-06 
4.7828e-06 
-4.42322e-07 
8.01206e-06 
1.39736e-05 
1.44437e-05 
1.68985e-05 
8.46332e-06 
5.53876e-06 
4.93502e-06 
1.07238e-05 
7.82075e-06 
1.39892e-05 
7.4748e-06 
-0.0105285 
-0.000134813 
-0.000107227 
-0.000460073 
-0.0330395 
2.63424e-05 
-0.00786802 
7.0908e-05 
-0.00118827 
-0.000542818 
-0.000188943 
-6.42369e-05 
-0.0319365 
-5.62041e-05 
-8.24653e-05 
-0.00017851 
-0.000231685 
-0.0182732 
-0.0001395 
-0.0364228 
-0.0906662 
-0.0644366 
-0.058117 
-0.0454555 
-0.053025 
-0.0542114 
-0.0624362 
-0.0237035 
-0.0635174 
-0.0503655 
-0.0334212 
-0.0459367 
-0.0218522 
-0.0597977 
-0.0408473 
-0.0438521 
-0.0394643 
-0.0457669 
-0.0487769 
-0.047436 
-0.0405961 
-0.0607914 
-0.0456956 
-0.0544087 
-0.0137192 
-0.0541513 
-0.0785496 
-0.0633959 
-0.0613357 
3.74836e-05 
5.4932e-05 
6.4363e-05 
6.91665e-05 
2.87913e-05 
5.63355e-05 
4.45308e-05 
4.31303e-05 
2.6937e-05 
8.21989e-05 
8.35644e-05 
4.45199e-05 
8.1546e-05 
3.84256e-05 
3.22895e-05 
6.93689e-05 
3.22618e-05 
9.86877e-05 
5.67063e-05 
5.44552e-05 
5.6921e-05 
5.8512e-05 
9.11434e-05 
3.09781e-05 
8.69608e-05 
2.69253e-05 
4.28141e-05 
0.000101107 
8.80152e-05 
2.5235e-05 
9.43871e-05 
2.8965e-05 
9.28909e-05 
0.000115728 
0.000100746 
1.84074e-05 
3.7709e-05 
1.51869e-05 
7.29047e-05 
1.58886e-05 
2.50853e-05 
0.000101168 
9.79521e-05 
4.33242e-06 
4.54332e-06 
5.34471e-06 
2.59378e-05 
4.04797e-06 
1.91248e-05 
4.36181e-06 
6.1726e-06 
5.93629e-06 
4.48758e-06 
2.45831e-06 
6.43347e-06 
2.65176e-05 
3.77861e-06 
4.45942e-06 
4.90905e-06 
5.61717e-06 
1.65385e-05 
-0.0303668 
-0.0117653 
4.18754e-05 
-2.7736e-05 
-0.0246566 
-0.000129634 
-0.0202159 
4.0405e-05 
-4.05841e-05 
-3.64841e-05 
-0.0157129 
-0.000461368 
4.54153e-06 
-6.03541e-05 
-0.000122906 
-0.0145558 
2.00107e-05 
-3.72178e-05 
-8.14772e-05 
-0.0172025 
-0.000234288 
5.89501e-06 
1.68557e-05 
4.94282e-06 
4.97954e-06 
4.38919e-06 
6.29663e-06 
6.74375e-06 
2.01715e-05 
6.39616e-06 
6.28309e-06 
2.53675e-06 
7.47223e-06 
5.5627e-06 
1.40854e-05 
7.24861e-06 
2.44131e-06 
1.93668e-06 
-0.0153347 
-0.0265156 
-0.000364935 
-0.000187667 
-0.0117473 
-9.71202e-05 
-0.0100533 
-0.000314205 
-0.000288258 
-0.000154759 
-0.0144933 
-5.89888e-05 
-0.00873239 
-0.000565254 
-9.62642e-05 
-0.00840447 
-5.53102e-05 
-0.000738584 
-0.000407772 
-7.65611e-05 
-0.0256445 
-0.00021182 
2.08429e-05 
-0.0191749 
-0.00895938 
4.2222e-06 
3.99497e-06 
5.28109e-06 
5.36641e-06 
2.87591e-06 
5.91038e-06 
3.26513e-06 
1.13227e-05 
6.02041e-06 
2.43759e-05 
3.65901e-06 
1.85731e-05 
7.76373e-06 
1.1597e-05 
7.15286e-06 
3.70382e-06 
5.72916e-06 
-7.39101e-05 
-0.000309871 
-0.0294056 
-0.000246973 
-0.0181689 
-0.000101536 
-9.43248e-05 
-0.00048252 
-0.00854581 
-0.0090332 
-0.000103915 
-0.000152652 
-0.000325757 
-0.000525174 
-0.0300664 
-0.000147052 
-7.96356e-05 
-0.000536304 
-0.00029072 
1.441e-05 
-0.0201008 
-0.0150651 
2.34002e-06 
2.82603e-06 
5.31451e-06 
1.38676e-05 
1.16971e-05 
8.81633e-06 
2.39187e-06 
6.92994e-06 
4.15297e-06 
4.22885e-06 
3.06331e-06 
1.194e-05 
7.10177e-06 
6.65981e-06 
7.16797e-06 
-0.000588847 
-0.000165545 
-0.000107349 
-0.00918727 
-0.00151201 
-6.59541e-05 
-1.84722e-05 
-0.000792346 
-0.000903251 
-6.94764e-05 
-0.000214058 
-0.000547574 
-0.0124851 
-0.000308209 
-4.8516e-05 
-0.000969312 
-0.0561353 
-0.0535822 
-0.0518526 
-0.051605 
-0.0325658 
-0.0426766 
-0.0487326 
-0.0575567 
-0.0754209 
-0.0673053 
-0.0583764 
-0.0747536 
-0.0806279 
-0.0296806 
-0.0644537 
-0.0500246 
-0.0541105 
-0.0812182 
-0.0758256 
-0.0356029 
-0.0499166 
-0.087475 
-0.0764172 
-0.054008 
-0.103861 
-0.0351315 
-0.0719549 
-0.0329849 
-0.0295138 
-0.022976 
ITEM: TIMESTEP
5600000
ITEM: NUMBER OF ATOMS
896
ITEM: BOX BOUNDS pp pp ff
-1.7300000000000001e+01 1.6899999999999999e+01
-1.8300000000000001e+01 1.7800000000000001e+01
-5.0000000000000000e+01 5.0000000000000000e+01
ITEM: ATOMS q 
3.77498e-05 
0.000100039 
2.61801e-05 
2.76586e-05 
0.000158028 
4.60338e-05 
0.000133249 
7.82673e-05 
0.000133344 
0.000129377 
3.11783e-05 
5.62676e-05 
7.69422e-05 
0.000107244 
4.6326e-05 
5.23746e-05 
5.21413e-05 
0.000134615 
0.000125551 
5.66135e-05 
4.30101e-05 
0.000170017 
6.5182e-05 
5.78259e-05 
0.000119702 
5.61222e-05 
0.000153503 
5.6608e-05 
8.83328e-05 
0.000151176 
5.34758e-05 
5.52845e-05 
0.000146058 
0.000126631 
3.7629e-05 
4.09703e-05 
4.44053e-05 
5.88457e-05 
6.67017e-05 
0.000110891 
8.2382e-05 
4.63402e-05 
1.58758e-05 
5.34426e-06 
3.9278e-06 
6.0301e-06 
6.35234e-06 
4.01335e-06 
1.33986e-06 
3.76539e-06 
3.2714e-06 
3.60839e-06 
1.62869e-05 
7.03312e-06 
1.72393e-05 
4.51361e-06 
4.27792e-06 
1.94625e-06 
4.62952e-06 
-8.02478e-05 
-0.004614 
-5.49489e-05 
-0.00652505 
-0.000213586 
-0.000601311 
-5.78433e-05 
-0.0109173 
-0.000112497 
-0.00647994 
-0.000259884 
-4.21073e-05 
-0.000120864 
-0.00530916 
-2.36295e-05 
-0.0160831 
-0.000222682 
-2.2308e-05 
-0.000267652 
-0.000172687 
-0.0057935 
-0.0100167 
7.07077e-06 
5.43236e-06 
4.22286e-06 
7.32441e-06 
5.54413e-06 
5.52237e-06 
4.22384e-05 
6.41341e-06 
2.28522e-05 
5.3964e-06 
3.00587e-05 
7.11746e-06 
4.38557e-06 
2.2183e-06 
5.53227e-06 
7.87731e-06 
3.28451e-05 
4.5274e-06 
-0.000227609 
2.8811e-05 
-0.000432649 
-0.000208367 
-0.0177122 
-2.52071e-06 
-0.0143545 
-0.000120863 
-0.000433907 
-0.000218743 
-0.000101352 
-0.0139104 
-0.000110384 
-3.74847e-05 
-0.0270957 
-0.00025033 
-0.000125637 
4.28356e-05 
-0.03657 
-0.0282992 
5.27735e-06 
4.75274e-06 
2.18194e-05 
3.14434e-06 
3.26366e-06 
5.24574e-06 
3.69211e-06 
2.12577e-06 
2.91464e-05 
3.68006e-06 
4.39444e-06 
2.31469e-05 
6.13247e-06 
4.30304e-06 
6.94698e-06 
3.5545e-05 
6.54784e-06 
2.8174e-06 
-0.00545035 
-0.0114783 
-4.17822e-05 
-6.33672e-05 
-0.0100543 
-6.61266e-05 
-0.0047384 
7.06617e-06 
-1.93801e-05 
-0.000226115 
-0.00658002 
2.42904e-05 
-6.53551e-05 
-0.00019594 
-0.000211929 
-0.0177053 
2.28362e-05 
-6.26777e-05 
-2.64197e-05 
-0.0158598 
-1.67393e-05 
7.25161e-06 
3.02368e-05 
5.37322e-06 
3.93914e-06 
1.05152e-05 
5.53968e-06 
6.53476e-06 
3.74046e-06 
2.89211e-06 
3.34309e-05 
4.32893e-06 
4.49773e-06 
3.73492e-06 
4.51584e-06 
4.16919e-05 
5.30416e-06 
2.9612e-06 
-0.0251783 
-0.0193508 
-0.000142333 
-8.46042e-05 
-0.0180557 
-3.73851e-05 
1.7679e-05 
3.57063e-06 
-0.00808856 
4.40664e-05 
-0.0150683 
9.41558e-05 
4.08135e-05 
1.83147e-06 
-0.00594258 
-7.86543e-06 
2.07888e-05 
4.2991e-06 
6.81028e-05 
-0.0195708 
3.27598e-05 
-0.0406204 
-0.0422059 
-0.0491276 
-0.0378677 
-0.0525389 
-0.0304852 
-0.025308 
-0.0223357 
-0.0477319 
-0.0653411 
-0.0613157 
-0.0677794 
-0.0271367 
-0.0404166 
-0.0387169 
-0.0357548 
-0.0364375 
-0.0374577 
-0.0164598 
-0.068951 
-0.0440434 
-0.0569167 
-0.0216556 
-0.0361878 
-0.0251429 
-0.0352038 
-0.0184199 
-0.0313616 
4.69183e-05 
0.000125484 
7.19377e-05 
0.000103134 
4.75891e-05 
0.000114633 
8.91282e-05 
6.08566e-05 
0.000142348 
0.000127579 
6.8226e-05 
0.000103222 
6.72751e-05 
5.58327e-05 
6.91265e-05 
9.28e-05 
5.93902e-05 
7.92063e-05 
7.23031e-05 
6.95831e-05 
2.17539e-05 
0.000123345 
3.50571e-05 
0.000128285 
0.00014035 
3.93906e-05 
2.11934e-05 
0.000106777 
0.000132215 
2.80595e-05 
0.000142629 