ITEM: TIMESTEP
5000000
ITEM: NUMBER OF ATOMS
896
ITEM: BOX BOUNDS pp pp ff
-1.7300000000000001e+01 1.6899999999999999e+01
-1.8300000000000001e+01 1.7800000000000001e+01
-5.0000000000000000e+01 5.0000000000000000e+01
ITEM: ATOMS q 
0 
0 
0 
0 
0 
0 
0 
0 
0 
0 
0 
0 
0 
0 
0 
0 
0 
0 
0 
0 
0 
0 
0 
0 
0 
0 
0 
0 
0 
0 
0 
0 
0 
0 
0 
0 
0 
0 
0 
0 
0 
0 
0 
0 
0 
0 
0 
0 
0 
0 
0 
0 
0 
0 
0 
0 
0 
0 
0 
0 
0 
0 
0 
0 
0 
0 
0 
0 
0 
0 
0 
0 
0 
0 
0 
0 
0 
0 
0 
0 
0 
0 
0 
0 
0 
0 
0 
0 
0 
0 
0 
0 
0 
0 
0 
0 
0 
0 
0 
0 
0 
0 
0 
0 
0 
0 
0 
0 
0 
0 
0 
0 
0 
0 
0 
0 
0 
0 
0 
0 
0 
0 
0 
0 
0 
0 
0 
0 
0 
0 
0 
0 
0 
0 
0 
0 
0 
0 
0 
0 
0 
0 
0 
0 
0 
0 
0 
0 
0 
0 
0 
0 
0 
0 
0 
0 
0 
0 
0 
0 
0 
0 
0 
0 
0 
0 
0 
0 
0 
0 
0 
0 
0 
0 
0 
0 
0 
0 
0 
0 
0 
0 
0 
0 
0 
0 
0 
0 
0 
0 
0 
0 
0 
0 
0 
0 
0 
0 
0 
0 
0 
0 
0 
0 
0 
0 
0 
0 
0 
0 
0 
0 
0 
0 
0 
0 
0 
0 
0 
0 
0 
0 
0 
0 
0 
0 
0 
0 
0 
0 
0 
0 
0 
0 
0 
0 
0 
0 
0 
0 
0 
0 
0 
0 
0 
0 
0 
0 
0 
0 
0 
0 
0 
0 
0 
0 
0 
0 
0 
0 
0 
0 
0 
0 
0 
0 
0 
0 
0 
0 
0 
0 
0 
0 
0 
0 
0 
0 
0 
0 
0 
0 
0 
0 
0 
0 
0 
0 
0 
0 
0 
0 
0 
0 
0 
0 
0 
0 
0 
0 
0 
0 
0 
0 
0 
0 
0 
0 
0 
0 
0 
0 
0 
0 
0 
0 
0 
0 
0 
0 
0 
0 
0 
0 
0 
0 
0 
0 
0 
0 
0 
0 
0 
0 
0 
0 
0 
0 
0 
0 
0 
0 
0 
0 
0 
0 
0 
0 
0 
0 
0 
0 
0 
0 
0 
0 
0 
0 
0 
0 
0 
0 
0 
0 
0 
0 
0 
0 
0 
0 
0 
0 
0 
0 
0 
0 
0 
0 
0 
0 
0 
0 
0 
0 
0 
0 
0 
0 
0 
0 
0 
0 
0 
0 
0 
0 
0 
0 
0 
0 
0 
0 
0 
0 
0 
0 
0 
0 
0 
0 
0 
0 
0 
0 
0 
0 
0 
0 
0 
0 
0 
0 
0 
0 
0 
0 
0 
0 
0 
0 
0 
0 
0 
0 
0 
0 
0 
0 
0 
0 
0 
0 
0 
0 
0 
0 
0 
0 
0 
0 
0 
0 
0 
0 
0 
0 
0 
0 
0 
0 
0 
0 
0 
0 
0 
0 
0 
0 
0 
0 
0 
0 
0 
0 
0 
0 
0 
0 
0 
0 
0 
0 
0 
0 
0 
0 
0 
0 
0 
0 
0 
0 
0 
0 
0 
0 
0 
0 
0 
0 
0 
0 
0 
0 
0 
0 
0 
0 
0 
0 
0 
0 
0 
0 
0 
0 
0 
0 
0 
0 
0 
0 
0 
0 
0 
0 
0 
0 
0 
0 
0 
0 
0 
0 
0 
0 
0 
0 
0 
0 
0 
0 
0 
0 
0 
0 
0 
0 
0 
0 
0 
0 
0 
0 
0 
0 
0 
0 
0 
0 
0 
0 
0 
0 
0 
0 
0 
0 
0 
0 
0 
0 
0 
0 
0 
0 
0 
0 
0 
0 
0 
0 
0 
0 
0 
0 
0 
0 
0 
0 
0 
0 
0 
0 
0 
0 
0 
0 
0 
0 
0 
0 
0 
0 
0 
0 
0 
0 
0 
0 
0 
0 
0 
0 
0 
0 
0 
0 
0 
0 
0 
0 
0 
0 
0 
0 
0 
0 
0 
0 
0 
0 
0 
0 
0 
0 
0 
0 
0 
0 
0 
0 
0 
0 
0 
0 
0 
0 
0 
0 
0 
0 
0 
0 
0 
0 
0 
0 
0 
0 
0 
0 
0 
0 
0 
0 
0 
0 
0 
0 
0 
0 
0 
0 
0 
0 
0 
0 
0 
0 
0 
0 
0 
0 
0 
0 
0 
0 
0 
0 
0 
0 
0 
0 
0 
0 
0 
0 
0 
0 
0 
0 
0 
0 
0 
0 
0 
0 
0 
0 
0 
0 
0 
0 
0 
0 
0 
0 
0 
0 
0 
0 
0 
0 
0 
0 
0 
0 
0 
0 
0 
0 
0 
0 
0 
0 
0 
0 
0 
0 
0 
0 
0 
0 
0 
0 
0 
0 
0 
0 
0 
0 
0 
0 
0 
0 
0 
0 
0 
0 
0 
0 
0 
0 
0 
0 
0 
0 
0 
0 
0 
0 
0 
0 
0 
0 
0 
0 
0 
0 
0 
0 
0 
0 
0 
0 
0 
0 
0 
0 
0 
0 
0 
0 
0 
0 
0 
0 
0 
0 
0 
0 
0 
0 
0 
0 
0 
0 
0 
0 
0 
0 
0 
0 
0 
0 
0 
0 
0 
0 
0 
0 
0 
0 
0 
0 
0 
0 
0 
0 
0 
0 
0 
0 
0 
0 
0 
0 
0 
0 
0 
0 
0 
0 
0 
0 
0 
0 
0 
0 
0 
0 
0 
0 
0 
0 
0 
0 
0 
0 
0 
0 
0 
0 
0 
0 
0 
0 
0 
0 
0 
0 
0 
0 
0 
0 
0 
0 
0 
0 
0 
0 
0 
0 
0 
0 
0 
0 
0 
0 
0 
0 
0 
0 
0 
0 
ITEM: TIMESTEP
5200000
ITEM: NUMBER OF ATOMS
896
ITEM: BOX BOUNDS pp pp ff
-1.7300000000000001e+01 1.6899999999999999e+01
-1.8300000000000001e+01 1.7800000000000001e+01
-5.0000000000000000e+01 5.0000000000000000e+01
ITEM: ATOMS q 
0.00290797 
0.0061973 
0.00531614 
0.00952825 
0.015238 
0.0165758 
0.00262986 
0.0124448 
0.038065 
0.0337095 
0.0358967 
0.00956261 
0.0146325 
0.0025088 
0.00258255 
-0.0140005 
-0.0121816 
-0.0179717 
0.00456089 
-0.00515416 
0.00160678 
0.0212402 
0.0312657 
0.005987 
-0.000266916 
0.00341471 
-0.00480803 
0.0144476 
7.36864e-06 
0.000576717 
1.50562e-05 
1.33935e-05 
1.75798e-05 
7.30237e-06 
7.38268e-05 
7.94401e-05 
3.77098e-05 
0.0001396 
0.000104856 
0.000972593 
7.34533e-06 
0.00136687 
3.01079e-05 
2.78513e-05 
6.52496e-05 
2.18363e-05 
0.00577166 
-3.61263e-06 
-3.22755e-05 
-4.04286e-06 
-5.67555e-06 
-8.6e-06 
-4.73549e-06 
-4.35725e-06 
-4.03795e-05 
-7.63492e-06 
-5.08977e-06 
-6.4174e-06 
-5.29961e-06 
-3.14491e-05 
-3.86191e-06 
-3.12734e-06 
-5.80076e-06 
-4.53798e-06 
-0.00110395 
3.57056e-05 
7.01795e-05 
0.000168353 
1.2048e-05 
0.0201126 
8.20033e-05 
-1.75151e-05 
0.010943 
9.52938e-05 
0.00690377 
8.13232e-05 
0.0127258 
6.98891e-05 
0.000171913 
0.000123726 
6.41135e-06 
0.00840605 
4.2597e-05 
0.00299753 
2.99092e-05 
-6.02986e-06 
-6.2805e-06 
-7.04766e-06 
-7.33788e-06 
-7.9406e-05 
-8.24793e-06 
-6.40013e-05 
-6.60353e-06 
-7.55262e-06 
-4.27849e-06 
-7.56185e-06 
-6.2974e-05 
-5.79079e-06 
-5.02461e-06 
-5.49182e-06 
-8.32641e-06 
-5.15016e-06 
0.00398087 
0.0022081 
-8.45424e-05 
1.48051e-05 
-0.000207027 
1.69765e-06 
-2.98083e-05 
7.46118e-06 
8.43006e-05 
9.10829e-05 
0.00821968 
-3.66954e-05 
0.000748703 
5.97215e-06 
-0.00587189 
-5.30027e-05 
4.13039e-05 
-2.9053e-06 
0.00119929 
3.17389e-07 
5.1387e-05 
0.0101286 
0.00406059 
-3.07483e-06 
-5.59997e-06 
-5.0617e-05 
-3.85513e-06 
-3.99129e-05 
-1.31962e-06 
-4.06522e-06 
-5.72542e-06 
-5.16013e-05 
-4.61941e-06 
-4.43707e-06 
-5.78528e-06 
-3.67669e-06 
-6.60462e-05 
-6.34235e-06 
-3.81094e-06 
-4.82758e-06 
-7.51592e-05 
-3.70932e-06 
-5.72695e-06 
-7.45072e-05 
-8.36144e-06 
-4.7052e-06 
-4.85135e-06 
2.04902e-05 
7.17699e-05 
5.05129e-05 
-3.48772e-06 
-0.00033329 
-7.7681e-06 
1.58244e-05 
0.000146191 
-2.06272e-05 
-1.46355e-05 
-0.000768208 
-1.42849e-05 
-0.00287323 
-1.60756e-06 
-1.34176e-06 
1.00436e-05 
0.00362339 
-4.49e-05 
0.0111602 
3.02006e-05 
-0.00353235 
0.033249 
-4.40757e-06 
-4.01851e-06 
-5.58737e-06 
-3.14086e-06 
-4.26314e-06 
-7.20695e-05 
-4.00272e-06 
-3.76408e-06 
-2.94855e-06 
-5.134e-06 
-7.56148e-05 
-3.098e-06 
-7.34707e-05 
-0.000247004 
-4.11085e-05 
-5.71202e-05 
-4.52794e-05 
-8.11995e-05 
-0.000215944 
-0.000285976 
-0.000258969 
-0.000265652 
-0.000281272 
-0.000182268 
-0.00026911 
-0.000271206 
-9.11368e-05 
-0.000162455 
-0.000241933 
-0.000140134 
-0.000122085 
-8.81079e-05 
-0.000254598 
-0.00025392 
-0.000284318 
-0.000123289 
-0.00017893 
-0.000142056 
-0.000207803 
-9.81928e-05 
-9.91462e-05 
-0.000230568 
-0.00013836 
-0.000160759 
-0.000185974 
-0.000205971 
-0.000121646 
-0.00014047 
-0.000255177 
-0.000138548 
-0.000110269 
-0.000148583 
-0.000132604 
0.0226056 
0.0278714 
0.00892799 
0.0120339 
0.0136484 
0.0364364 
0.0081772 
-0.00554745 
0.00189195 
0.0269702 
0.00267268 
0.0255507 
-6.19233e-05 
-0.0173078 
0.0504366 
-0.00591527 
0.0128975 
0.0155781 
0.0169945 
0.0118313 
0.0332343 
0.00800889 
0.0353256 
0.0132464 
0.0189222 
0.00534356 
0.0121471 
0.0148889 
0.00852012 
0.0130916 
6.16725e-05 
3.12417e-05 
1.85342e-05 
0.0133204 
0.000174358 
7.51375e-05 
1.84929e-05 
-2.69949e-05 
0.00232968 
0.00340541 
-6.42629e-07 
7.6877e-06 
4.34065e-06 
0.0005505 
8.50856e-05 
0.000346044 
3.35733e-05 
3.57897e-05 
0.0164379 
0.00217282 
0.0104254 
-6.61782e-06 
-5.10936e-06 
-5.71478e-06 
-7.53903e-06 
-4.69348e-05 
-5.38753e-06 
-7.32113e-05 
-6.73088e-06 
-4.975e-06 
-7.26053e-06 
-5.20518e-06 
-5.88072e-06 
-6.72812e-06 
-4.39321e-05 
-6.70463e-06 
-1.43458e-06 
-5.9592e-05 
-6.13013e-06 
-1.19054e-06 
-1.50303e-05 
-7.7039e-05 
-2.4094e-05 
-0.0125676 
-5.45347e-05 
3.17427e-05 
-3.67392e-07 
0.000209434 
0.000241159 
9.26236e-06 
-0.0075678 
-1.27523e-05 
-3.9229e-05 
-5.71277e-05 
-0.0132406 
-7.20621e-06 
0.0101066 
0.00172203 
-4.60336e-06 
-3.30577e-06 
-5.36168e-06 
-6.99568e-05 
-2.65643e-06 
-3.99961e-06 
-5.30601e-06 
-2.60715e-06 
-8.60319e-05 
-1.06985e-05 
-6.13229e-06 
-6.62393e-06 
-6.26632e-05 
-3.19561e-06 
-6.78062e-06 
-4.99122e-06 
-4.78626e-06 
4.99762e-05 
4.61898e-06 
6.04453e-05 
0.000184561 
7.42115e-06 
0.00124322 
4.3562e-05 
8.29131e-06 
0.00715663 
0.00165488 
8.75432e-06 
0.000796714 
1.8873e-05 
0.000201565 
5.88699e-05 
0.0040801 
5.36254e-05 
0.00566653 
2.94441e-05 
0.000140167 
-6.82202e-06 
-7.82255e-06 
-4.99647e-06 
-3.48394e-05 
-4.44032e-06 
-3.36979e-05 
-6.61351e-06 
-5.12459e-06 
-6.14648e-06 
-6.6739e-06 
-3.9815e-06 
-3.50831e-05 
-4.06511e-06 
-2.89083e-06 
-4.90896e-06 
-5.92342e-06 
-4.10128e-06 
0.000314228 
0.00402918 
0.0100741 
0.000176876 
3.42177e-05 
-9.42475e-06 
0.000100383 
0.00658878 
3.51741e-05 
8.19366e-05 
0.00668431 
5.94447e-06 
0.000112297 
0.000154491 
-2.69286e-05 
0.00728212 
3.85753e-06 
0.00384071 
2.83526e-05 
0.000120163 
2.2047e-05 
-5.18203e-06 
-4.61707e-05 
-7.58153e-06 
-7.46125e-06 
-5.89594e-05 
-5.47039e-06 
-5.96493e-06 
-5.56165e-06 
-6.69807e-05 
-7.30266e-06 
-6.12213e-06 
-5.36227e-06 
-5.25558e-06 
-6.49378e-06 
-5.74243e-06 
-4.78701e-06 
-8.60447e-05 
-4.83621e-06 
0.00801903 
-0.000239871 
-0.000115412 
-0.00017726 
-0.000108666 
-0.000342872 
-0.000111134 
-0.000302769 
-0.000115911 
-0.000131788 
-0.000309193 
-7.88297e-05 
-9.56992e-05 
-0.000134094 
-0.000119326 
-0.000166608 
-9.20465e-05 
-0.000292481 
-0.000109688 
-0.000222542 
-0.000253214 
-8.41283e-05 
-5.98633e-05 
-5.41703e-05 
-0.000156568 
-0.000317473 
-0.000267013 
-0.000268711 
-5.73353e-05 
-9.10117e-05 
-7.63479e-05 
-0.00019831 
-0.000260734 
-0.000107949 
-0.000105284 
-0.000270412 
-0.000154701 
-0.000252289 
-0.00021408 
-8.63189e-05 
-0.000112026 
-0.000113059 
-9.53989e-05 
0.0396488 
0.0158785 
0.00376115 
0.00920888 
0.00625143 
0.00516055 
0.00327259 
0.00396497 
0.0118841 
0.00384952 
-0.000279164 
0.00209728 
0.0196393 
0.00553833 
0.00658064 
0.0111137 
0.00790652 
0.026099 
0.00846661 
0.0118298 
0.0340205 
0.00960318 
0.0116553 
0.00318736 
0.00402251 
0.0414221 
0.0172361 
0.0393443 
0.0330426 
-0.00439315 
0.00187962 
9.3068e-05 
4.88434e-05 
3.59105e-05 
0.00839635 
7.63329e-05 
0.000100753 
1.50795e-05 
4.06572e-05 
0.00685245 
3.84484e-05 
5.28978e-06 
-1.68085e-06 
0.000633192 
-2.81242e-06 
0.000791432 
2.23246e-05 
5.27569e-07 
5.82936e-06 
0.00044466 
-6.71854e-06 
-7.275e-05 
-6.25072e-06 
-6.68748e-06 
-8.28935e-06 
-5.50703e-05 
-6.93695e-06 
-5.22416e-06 
-8.56065e-06 
-5.56493e-06 
-5.20556e-06 
-5.14323e-06 
-5.17652e-06 
-6.1746e-06 
-5.22794e-06 
-3.31986e-05 
-5.22454e-06 
0.00153106 
-6.12163e-05 
8.46923e-05 
2.48837e-05 
5.38166e-06 
4.85933e-05 
0.00215348 
0.000110046 
9.53513e-05 
1.68877e-06 
7.29935e-05 
0.000956821 
6.57082e-06 
1.62448e-05 
1.11028e-05 
0.000218013 
0.000188091 
-9.5544e-06 
-4.32789e-06 
-5.61973e-06 
-4.93173e-06 
-5.17877e-06 
-7.3012e-06 
-5.06893e-06 
-2.16676e-05 
-4.3447e-06 
-5.62097e-06 
-6.35349e-06 
-6.07445e-06 
-7.49301e-06 
-7.96783e-06 
-9.28865e-06 
-5.91229e-06 
0.00348137 
0.00168791 
-4.3379e-05 
1.5392e-05 
-8.72515e-06 
-7.79105e-06 
0.00301093 
3.63372e-05 
1.83687e-05 
1.44296e-05 
4.25174e-05 
0.00301029 
0.00847449 
1.33097e-05 
2.43577e-05 
-1.69555e-05 
0.00707343 
-2.12881e-05 
0.00202245 
5.81408e-06 
1.23988e-05 
9.02929e-05 
0.0219681 
-0.000752384 
-3.99943e-06 
-3.75612e-06 
-4.25894e-06 
-7.83253e-05 
-3.62726e-06 
-5.93929e-06 
-4.95261e-06 
-4.99001e-05 
-4.13678e-06 
-3.77079e-06 
-5.1346e-06 
-3.81244e-06 
-7.8671e-05 
-4.24351e-06 
-2.25253e-06 
-4.23596e-06 
-5.72223e-05 
-3.57643e-06 
-5.71504e-06 
-5.30781e-05 
-4.92955e-06 
-6.26264e-06 
-6.13843e-05 
-5.56433e-06 
-4.69833e-06 
0.000152406 
3.45748e-06 
0.00235825 
2.7084e-05 
0.000112052 
0.000228921 
1.5579e-05 
0.00567292 
9.96075e-06 
1.11318e-05 
0.00680174 
2.4691e-05 
0.00269586 
1.29464e-05 
6.78797e-05 
1.43499e-05 
0.000354575 
1.27287e-05 
0.00128826 
-7.50791e-06 
-6.11393e-05 
0.00253317 
-5.5606e-06 
-5.90917e-06 
-4.94475e-06 
-6.4323e-06 
-4.38611e-05 
-6.10566e-06 
-8.26885e-06 
-5.75492e-06 
-4.73893e-06 
-4.38597e-06 
-0.000168429 
-0.000264056 
-7.88367e-05 
-0.000292081 
-0.00012426 
-7.57758e-05 
-0.000254472 
-9.04283e-05 
-0.000271996 
-0.000250691 
-0.000106657 
-0.000285511 
-7.01397e-05 
-4.57071e-05 
-0.000292056 
-8.4874e-05 
-5.34838e-05 
-0.000291949 
-0.000268985 
-4.89131e-05 
-0.000210639 
-0.000336489 
-0.000188168 
-0.000114586 
-0.000237656 
-0.000129291 
-8.68112e-05 
-0.000162691 
-0.000131545 
-0.000164574 
-8.16837e-05 
-0.000200856 
-0.000152755 
-9.0528e-05 
-0.000201422 
-0.000238498 
-0.000164306 
-9.39782e-05 
-0.000241396 
-0.000161744 
-0.000283919 
-0.000116678 
-0.000130029 
-0.0109243 
-0.0073518 
-0.00796861 
-0.00307267 
-0.00581236 
0.00748938 
-0.00564576 
-0.0137313 
0.00152398 
0.000350136 
0.00369961 
0.00586132 
0.0035008 
0.00580361 
0.0233792 
0.00280458 
0.00482274 
0.0190102 
0.0112152 
0.0104779 
0.00727209 
0.00539106 
0.00321064 
0.0105392 
0.0046435 
0.00676928 
0.0022308 
0.00771529 
0.00989439 
0.00745096 
9.93024e-05 
0.0165672 
-2.42682e-05 
-4.25362e-05 
-0.000770035 
-5.94624e-05 
-2.95936e-05 
5.24693e-06 
6.05381e-06 
-0.00657749 
-0.00242634 
-3.38751e-05 
8.71241e-06 
-4.4468e-07 
-0.0015705 
2.58012e-06 
-0.00438228 
-1.05351e-05 
7.54061e-06 
2.75738e-06 
-6.59903e-05 
0.00050188 
-3.35903e-06 
-3.71492e-06 
-4.90475e-06 
-8.1056e-05 
-4.07394e-06 
-2.43771e-06 
-2.16438e-06 
-5.58378e-05 
-5.94535e-06 
-4.59699e-06 
-4.1761e-06 
-5.5909e-06 
-7.01091e-05 
-4.58812e-06 
-4.09347e-06 
-4.01512e-06 
-5.03671e-05 
-5.65076e-06 
-3.69601e-05 
1.428e-06 
5.12201e-07 
2.73987e-07 
-0.00166067 
-2.19527e-06 
3.75e-06 
0.000293495 
6.49235e-05 
6.52266e-06 
-0.0017937 
7.10414e-07 
1.44406e-05 
-2.01329e-06 
0.000634053 
-5.94965e-06 
2.03283e-05 
0.000201412 
0.00139146 
-4.39466e-06 
-5.10304e-06 
-5.13353e-05 
-3.95156e-06 
-4.39164e-05 
-4.01208e-06 
-4.97108e-06 
-5.02111e-06 
-4.36456e-05 
-5.62723e-06 
-3.03379e-05 
-6.82223e-06 
-5.8516e-06 
-3.44426e-05 
-6.31724e-06 
-5.74655e-06 
-5.10382e-06 
-6.70755e-06 
-6.87509e-06 
-2.56209e-05 
-5.30208e-05 
-1.47249e-05 
3.56533e-06 
-5.59022e-06 
-0.0020178 
-1.31712e-05 
-1.07798e-05 
0.00326681 
4.14081e-05 
0.00159612 
9.29756e-06 
0.00501068 
0.000104581 
0.00261671 
0.000118793 
2.1137e-05 
1.94604e-05 
0.00341482 
4.11646e-05 
0.000121559 
-3.89917e-06 
-5.36764e-06 
-4.92026e-06 
-7.23543e-05 
-4.16144e-06 
-5.07073e-06 
-5.65104e-06 
-3.19334e-05 
-4.50632e-05 
-4.88115e-06 
-5.12739e-06 
-7.28431e-06 
-5.29439e-06 
-5.40311e-06 
-4.58664e-06 
-6.36538e-06 
-5.61965e-06 
0.0123086 
0.00553949 
0.00129457 
-8.74527e-06 
6.2927e-05 
4.15477e-06 
2.20021e-05 
-4.28229e-07 
1.98558e-05 
0.00158709 
1.45386e-05 
0.000162568 
0.00175937 
5.96319e-06 
7.43327e-06 
0.00174464 
2.39436e-05 
7.83502e-05 
-3.84004e-06 
1.79354e-06 
0.000441829 
1.68196e-05 
-7.3465e-06 
-6.0707e-06 
-5.2845e-06 
-3.47285e-05 
-5.83883e-06 
-6.71359e-06 
-4.83586e-06 
-5.77901e-06 
-6.91442e-06 
-3.25553e-05 
-5.44581e-06 
-5.57667e-06 
-5.44192e-06 
-5.26911e-06 
-4.5142e-06 
-7.59192e-05 
-0.00017748 
-0.000185633 
-0.000103208 
-0.000115369 
-0.000224394 
-0.000119315 
-0.000288498 
-0.000194851 
-0.00014781 
-0.000285314 
-6.11894e-05 
-0.000266242 
-5.85189e-05 
-0.000272948 
-0.000270042 
-0.000327378 
-0.000245902 
-0.000315844 
-8.2305e-05 
-0.000253281 
-0.00026536 
-0.000255329 
-7.46749e-05 
-8.22492e-05 
-0.000162967 
-9.14114e-05 
-0.000109323 
-0.000145139 
-0.000268515 
-0.000334532 
-7.96823e-05 
-0.000122124 
-5.94942e-05 
-0.000119353 
-0.00018803 
-0.000269521 
-0.00013466 
-0.000101092 
-0.000112672 
-0.00031632 
ITEM: TIMESTEP
5400000
ITEM: NUMBER OF ATOMS
896
ITEM: BOX BOUNDS pp pp ff
-1.7300000000000001e+01 1.6899999999999999e+01
-1.8300000000000001e+01 1.7800000000000001e+01
-5.0000000000000000e+01 5.0000000000000000e+01
ITEM: ATOMS q 
0.0112821 
0.00495038 
0.0103276 
0.00874555 
0.0161121 
0.0204997 
0.0202565 
-0.00258014 
0.0261696 
0.0224214 
0.0351307 
0.0138034 
-0.00449023 
0.0178766 
0.00863014 
0.00130284 
-0.00014693 
-0.00180258 
0.0190239 
0.0185727 
0.0202277 
0.0382949 
0.0254416 
0.0296297 
0.0387701 
0.0416615 
0.0131372 
0.0168206 
1.44921e-05 
0.0019075 
8.3036e-05 
9.82807e-06 
0.00156442 
9.24676e-06 
5.77941e-05 
7.26779e-05 
2.37168e-05 
0.000156815 
0.000250462 
0.00181331 
1.83063e-05 
0.0020447 
2.3707e-05 
2.42416e-05 
2.72142e-05 
2.24228e-05 
0.00123946 
-3.6074e-06 
-1.52074e-05 
-3.40347e-06 
-2.75092e-06 
-2.50014e-06 
-1.47559e-06 
-1.84481e-06 
-1.91061e-05 
-4.17616e-06 
-5.6066e-06 
-1.5407e-06 
-2.64986e-06 
-1.46708e-05 
-4.31206e-06 
-1.85153e-06 
-3.07373e-06 
-2.84918e-06 
0.00218889 
2.97177e-05 
5.42328e-05 
0.000121376 
-6.50449e-06 
0.0135186 
5.28275e-05 
-2.92838e-05 
0.00483422 
1.93126e-05 
0.00518809 
4.73511e-05 
0.0115082 
3.60416e-05 
9.12437e-05 
0.000118653 
3.12707e-05 
0.00526592 
3.49747e-05 
0.00503734 
4.1725e-05 
-4.07868e-06 
-1.95599e-06 
-4.71885e-06 
-4.57029e-06 
-3.79245e-05 
-6.44612e-06 
-3.04526e-05 
-3.76274e-06 
-3.5584e-06 
-2.57944e-06 
-5.27614e-06 
-2.94275e-05 
-3.1526e-06 
-3.12437e-06 
-2.33088e-06 
-4.13738e-06 
-7.05863e-06 
0.00193842 
0.0095229 
-4.03757e-05 
3.43684e-05 
6.20743e-05 
0.000144368 
2.42707e-06 
-7.58342e-06 
3.38857e-05 
-5.13021e-05 
-0.00127017 
3.96807e-06 
0.00525888 
0.000189315 
9.76767e-05 
3.39154e-05 
0.000163521 
-1.28628e-05 
0.00749213 
-1.16969e-05 
0.00019602 
0.017834 
0.00775856 
-2.44747e-06 
-1.18985e-06 
-2.40389e-05 
-3.23871e-06 
-1.7642e-05 
-2.72391e-06 
-3.10658e-06 
-1.65057e-06 
-2.41302e-05 
-3.62157e-06 
-3.51093e-06 
-4.55901e-06 
-3.98269e-06 
-3.03371e-05 
-5.12058e-06 
-3.36995e-06 
-5.5995e-06 
-3.57116e-05 
-1.89111e-06 
-1.24318e-06 
-3.75869e-05 
-3.93588e-06 
-4.74458e-06 
-1.54783e-06 
9.11979e-05 
7.06673e-05 
0.000165199 
4.59494e-06 
0.0108072 
5.77784e-05 
3.75501e-05 
0.00970825 
-1.10439e-05 
8.23256e-06 
0.026133 
3.68987e-05 
0.0231222 
7.26037e-06 
0.000156491 
2.78496e-05 
0.00964851 
3.14683e-05 
0.0142295 
4.58988e-05 
0.00540595 
0.0216737 
-1.36253e-06 
-3.21212e-06 
-3.48898e-06 
-2.45743e-06 
-9.15806e-06 
-3.44787e-05 
-6.4599e-06 
-4.67461e-06 
-2.07019e-06 
-2.40296e-06 
-3.7164e-05 
-2.64359e-06 
-0.000136197 
-0.000128057 
-3.45028e-05 
-0.000120043 
-2.12182e-05 
-2.79328e-05 
-2.2443e-05 
-3.81476e-05 
-0.000104277 
-0.000137842 
-0.000124238 
-7.87696e-05 
-8.80618e-05 
-0.000130216 
-0.000122437 
-6.70073e-05 
-4.34926e-05 
-4.22026e-05 
-0.000131379 
-0.000116571 
-5.78639e-05 
-4.71501e-05 
-0.000122266 
-0.000111806 
-0.000100141 
-6.81506e-05 
-0.000138219 
-8.70965e-05 
-5.91355e-05 
-4.76374e-05 
-7.17664e-05 
-9.96939e-05 
-6.80523e-05 
-5.87895e-05 
-6.38285e-05 
-6.77674e-05 
-0.000122171 
-8.97937e-05 
-7.85781e-05 
-5.40147e-05 
-6.69031e-05 
0.0113024 
0.0286387 
-0.0028716 
0.00965802 
0.00509196 
0.0163821 
0.0115027 
0.0047316 
0.00957037 
0.00710455 
0.00686885 
0.00587419 
0.00446568 
0.0352841 
0.0370524 
0.0126143 
0.00533116 
0.020282 
0.0061837 
0.00357062 
0.011934 
0.00388255 
-0.000133175 
0.0106912 
0.017504 
0.00688196 
0.00973398 
0.0354948 
0.00561377 
0.011214 
6.29513e-05 
7.75925e-06 
3.75088e-05 
0.011137 
9.0012e-05 
7.29771e-05 
3.40873e-05 
-3.99286e-06 
0.00264527 
0.000434807 
-9.51051e-06 
5.32639e-07 
-2.00703e-06 
0.000694766 
3.7907e-05 
8.75112e-05 
8.33619e-06 
-8.66923e-06 
0.0039812 
0.000880471 
0.00923035 
-3.83099e-06 
-8.59238e-07 
-3.58458e-06 
-3.95953e-06 
-2.3355e-05 
-3.44629e-06 
-3.46677e-05 
-1.94139e-06 
-2.67734e-06 
-4.56732e-06 
-2.26172e-06 
-1.79262e-06 
-3.72896e-06 
-2.20027e-05 
-1.95372e-06 
-2.88278e-06 
-2.93635e-05 
-2.64881e-06 
-1.22894e-05 
-3.05905e-06 
-9.65421e-06 
-4.7851e-05 
0.00560302 
-6.79374e-05 
-8.7835e-05 
-6.90164e-05 
7.08453e-05 
1.26945e-05 
-2.12837e-05 
0.00477304 
-2.27638e-05 
-4.42937e-05 
-1.67616e-05 
0.0215207 
4.77769e-05 
0.00255562 
0.00133565 
-2.10232e-06 
2.1809e-07 
-8.69364e-07 
-3.502e-05 
-1.18152e-07 
-2.11564e-06 
-2.2645e-06 
-2.02645e-06 
-4.08093e-05 
-3.59917e-06 
-1.52125e-06 
-2.95826e-06 
-3.03798e-05 
-3.10379e-06 
-2.58991e-06 
-3.90178e-06 
-3.82627e-06 
2.93111e-05 
9.31969e-06 
0.000108096 
7.95377e-05 
3.98407e-06 
0.000920544 
2.58888e-05 
3.45349e-06 
0.00963717 
0.000663183 
3.60912e-06 
0.000526813 
4.63861e-06 
6.93568e-05 
2.28843e-05 
0.00233445 
2.0616e-05 
0.00156611 
1.52807e-05 
6.94659e-05 
-3.20587e-06 
-3.75919e-06 
-1.30849e-06 
-1.79475e-05 
-1.74771e-06 
-1.64756e-05 
-2.84038e-06 
-2.52891e-06 
-3.15974e-06 
-2.50331e-06 
-2.60023e-06 
-1.62148e-05 
-1.72022e-06 
-1.9847e-06 
-2.72695e-06 
-3.34348e-06 
-3.11294e-06 
0.000643161 
0.0017258 
0.00539273 
0.000113672 
-3.25213e-05 
-3.15681e-05 
8.72829e-05 
0.00496093 
6.57247e-06 
-9.76577e-06 
-0.00324258 
-3.26832e-05 
5.03414e-05 
0.000181872 
-1.35234e-05 
0.00403105 
4.16408e-06 
0.00783439 
5.04081e-05 
8.79801e-05 
2.75705e-05 
-4.3685e-06 
-2.25049e-05 
-2.22282e-06 
-4.17308e-06 
-2.89588e-05 
-1.48177e-06 
-2.23286e-06 
-2.65288e-06 
-3.26414e-05 
-4.60301e-06 
-4.02615e-06 
-3.30049e-06 
-3.1969e-06 
-2.95537e-06 
-3.93872e-06 
-2.5327e-06 
-4.13273e-05 
-2.68296e-06 
0.00730757 
-0.000115293 
-5.51871e-05 
-8.51198e-05 
-5.26475e-05 
-0.000165087 
-5.33808e-05 
-0.000145515 
-5.51658e-05 
-6.26865e-05 
-0.000149095 
-0.000140429 
-5.78214e-05 
-5.32013e-05 
-0.000107057 
-6.52626e-05 
-3.80689e-05 
-4.73677e-05 
-8.04592e-05 
-3.95475e-05 
-0.000122361 
-4.33103e-05 
-2.6061e-05 
-2.94931e-05 
-2.71002e-05 
-0.000129484 
-7.49913e-05 
-4.33866e-05 
-0.000124935 
-0.000128146 
-0.000153268 
-3.71732e-05 
-9.59926e-05 
-7.38542e-05 
-0.00012992 
-5.43173e-05 
-5.35552e-05 
-0.00010313 
-5.17375e-05 
-4.54776e-05 
-4.16357e-05 
-5.06819e-05 
-0.000121525 
0.0108387 
0.00930582 
0.00314219 
0.0227104 
0.00624642 
0.00582669 
0.0181806 
0.0104953 
0.0124415 
0.00345226 
0.0155497 
0.0132326 
0.0181863 
0.011737 
0.00404521 
0.0128874 
0.0228242 
0.0560916 
0.0354364 
0.0196326 
0.0447991 
0.0147584 
0.0107056 
0.00605717 
0.0106146 
0.0316795 
0.0170247 
0.0102999 
0.00280275 
0.0143399 
0.00196655 
1.66214e-05 
1.35271e-05 
5.89855e-06 
0.00334849 
6.25969e-05 
5.01369e-05 
4.75466e-06 
2.41715e-05 
0.00543983 
0.000106288 
3.21813e-05 
7.47656e-06 
0.00456917 
4.7164e-05 
0.00113105 
6.94445e-05 
1.7565e-05 
1.50767e-05 
0.00225754 
-3.09603e-06 
-3.49537e-05 
-2.52483e-06 
-2.1699e-06 
-4.42798e-06 
-2.67195e-05 
-2.4802e-06 
-2.81699e-06 
-4.04599e-06 
-3.20561e-06 
-3.08145e-06 
-3.06233e-06 
-4.44226e-06 
-4.69706e-06 
-2.84989e-06 
-1.6058e-05 
-1.38485e-06 
0.00206245 
-2.91267e-05 
0.000139394 
2.31339e-05 
6.18852e-06 
3.75242e-05 
0.0021668 
0.000136926 
0.000119873 
1.4609e-05 
0.000227479 
0.00242431 
1.77967e-05 
5.27231e-05 
1.00588e-05 
0.000446009 
0.000167321 
-1.08879e-05 
-2.05003e-06 
-2.80517e-06 
-2.61681e-06 
-4.00915e-06 
-2.97694e-06 
-3.95524e-06 
-9.40155e-06 
-4.30688e-06 
-3.12912e-06 
-3.6787e-06 
-3.52192e-06 
-5.58923e-06 
-7.06154e-06 
-3.45105e-06 
-4.58637e-06 
0.010298 
0.00291305 
-2.12038e-05 
7.14681e-05 
1.72769e-05 
9.64457e-06 
0.00858078 
7.77549e-05 
3.9738e-05 
3.7349e-05 
0.000108207 
0.00515123 
0.017781 
2.4472e-05 
1.9685e-05 
-1.41949e-05 
0.0108459 
-1.18929e-05 
0.00398194 
2.07744e-05 
-7.60598e-06 
0.000102666 
0.0308715 
0.00529427 
-2.64376e-06 
-2.67387e-06 
-4.23514e-06 
-3.67389e-05 
-5.19083e-06 
-3.78756e-06 
-2.29296e-06 
-2.34513e-05 
-2.3125e-06 
-3.40003e-06 
-3.37093e-06 
-3.81678e-06 
-3.65845e-05 
-4.77302e-06 
-3.60108e-06 
-1.99792e-06 
-2.83647e-05 
-1.21004e-06 
-2.26466e-06 
-2.7124e-05 
-1.65437e-06 
-2.94256e-06 
-3.08157e-05 
-3.19005e-06 
-2.68262e-07 
0.000125766 
2.92811e-05 
0.00312785 
2.56246e-05 
0.000154578 
0.000145537 
4.04104e-05 
0.00661275 
1.4596e-05 
3.9912e-05 
0.00197924 
2.12499e-05 
0.000733419 
-9.06816e-06 
3.41677e-05 
-2.47774e-06 
0.000879549 
7.08648e-06 
0.000975147 
1.34103e-05 
-0.000435833 
0.00521146 
-3.55777e-06 
-4.22729e-06 
-4.18488e-06 
-2.64338e-06 
-2.12011e-05 
-7.61062e-07 
-3.96925e-06 
-3.16413e-06 
-3.73173e-06 
-2.71852e-06 
-8.11801e-05 
-0.000127158 
-3.72806e-05 
-0.000140235 
-5.97118e-05 
-3.73615e-05 
-0.000122293 
-4.3022e-05 
-0.00013028 
-0.000120711 
-2.57193e-05 
-5.21888e-05 
-0.000129615 
-0.000161516 
-0.000101675 
-2.38624e-05 
-0.000137073 
-0.000140829 
-2.23629e-05 
-3.45361e-05 
-0.000140896 
-4.00608e-05 
-9.03773e-05 
-0.000114517 
-6.30687e-05 
-7.83085e-05 
-4.12381e-05 
-7.93694e-05 
-5.46048e-05 
-9.66068e-05 
-6.19816e-05 
-3.86383e-05 
-6.16823e-05 
-9.69032e-05 
-7.77422e-05 
-4.46192e-05 
-0.000115274 
-5.60506e-05 
-0.000113394 
-7.38063e-05 
-4.41628e-05 
-0.0001372 
-7.86845e-05 
0.0100507 
0.0351782 
-0.00111293 
-0.00407529 
0.00773435 
0.00143031 
0.010458 
0.0374625 
0.00377784 
0.000651568 
-0.00570374 
0.00140164 
0.00176838 
0.00424868 
0.0067812 
0.00194187 
0.00430601 
0.00960402 
0.00899778 
0.00786759 
0.0041067 
0.00708143 
0.00284226 
0.00990541 
0.00258647 
0.00618463 
0.00155024 
0.00596755 
0.00503946 
0.00520271 
-4.44828e-05 
0.0152821 
-0.000103971 
-4.79457e-05 
0.00335562 
-0.000127427 
2.26917e-05 
-5.19873e-06 
3.80475e-05 
0.0205787 
0.0135584 
0.000115959 
-1.59966e-05 
-3.10905e-05 
0.00431017 
-1.63632e-05 
0.0101625 
5.65496e-06 
1.21102e-05 
2.0072e-06 
0.00242594 
-0.000642867 
-1.2788e-06 
-2.1723e-06 
-1.29707e-06 
-4.0003e-05 
-2.31824e-06 
-2.64025e-06 
-1.93776e-06 
-2.74153e-05 
-4.88879e-06 
-5.76758e-06 
-3.83928e-06 
-2.88798e-06 
-3.34885e-05 
-1.45495e-06 
-2.86822e-06 
-1.39491e-06 
-2.32988e-05 
-4.11066e-06 
9.739e-05 
1.04316e-05 
-3.91139e-05 
-1.16561e-05 
0.00146284 
-1.46494e-05 
1.25723e-05 
-0.000227267 
3.27284e-05 
-1.95778e-05 
0.00420811 
3.19411e-05 
-5.33999e-06 
-1.14238e-05 
0.000938844 
-3.96925e-06 
-1.49068e-05 
2.96956e-05 
0.00106377 
-4.35778e-06 
-3.10518e-06 
-2.5329e-05 
-1.62906e-06 
-2.24846e-05 
-1.78688e-06 
-1.23447e-06 
-1.91627e-07 
-2.2691e-05 
-1.21134e-06 
-1.57989e-05 
-2.73863e-06 
-9.58907e-07 
-1.78167e-05 
-1.42525e-06 
-3.22367e-06 
-2.79651e-06 
-2.27694e-06 
-2.31126e-06 
-1.30794e-05 
-4.38473e-05 
-2.14882e-05 
-4.81427e-06 
-2.6938e-06 
-0.00172412 
-1.50398e-05 
-8.85163e-06 
0.00151493 
3.91296e-05 
0.00123421 
-3.55359e-07 
0.0049785 
5.98838e-05 
0.00151252 
7.05277e-05 
1.563e-05 
1.57009e-05 
0.0021239 
3.19688e-05 
9.76422e-05 
-3.28154e-06 
-2.45331e-06 
-3.53682e-06 
-3.34473e-05 
-2.78374e-06 
-2.6311e-06 
-5.00653e-06 
-1.40884e-05 
-1.96636e-05 
-3.91835e-06 
-3.9119e-06 
-4.37608e-06 
-3.12096e-06 
-1.79008e-06 
-1.83568e-06 
-2.90404e-06 
-2.25061e-06 
0.00379048 
0.00210585 
0.000827673 
-3.63807e-06 
4.15238e-05 
3.193e-06 
1.20376e-05 
2.21223e-06 
1.62348e-05 
0.00129803 
1.01858e-05 
8.3959e-05 
0.00169711 
6.20161e-06 
6.53674e-06 
0.00137503 
1.68598e-05 
6.17002e-05 
-1.47987e-06 
1.49615e-06 
0.000346678 
1.81408e-05 
-5.03897e-06 
-3.06474e-06 
-3.23348e-06 
-1.60436e-05 
-3.86894e-06 
-2.80191e-06 
-1.11935e-06 
-3.22098e-06 
-4.56283e-06 
-1.66441e-05 
-2.09968e-06 
-2.46802e-06 
-3.23694e-06 
-2.84637e-06 
-2.02212e-06 
-3.65455e-05 
-8.5908e-05 
-8.9528e-05 
-4.93248e-05 
-5.55528e-05 
-0.000108027 
-5.7302e-05 
-0.000139016 
-9.35938e-05 
-7.09264e-05 
-0.000130622 
-0.00012951 
-2.79085e-05 
-0.00012738 
-0.000117266 
-0.000158153 
-0.000137612 
-2.89486e-05 
-3.95134e-05 
-3.66581e-05 
-0.000128618 
-4.34082e-05 
-3.9139e-05 
-0.000122204 
-0.000153929 
-0.000123106 
-5.28203e-05 
-7.88728e-05 
-6.97088e-05 
-0.000152642 
-5.69278e-05 
-2.81463e-05 
-9.02606e-05 
-5.43985e-05 
-6.50341e-05 
-5.78692e-05 
-3.76633e-05 
-4.8936e-05 
-0.000161642 
-0.000130531 
-0.000130434 
ITEM: TIMESTEP
5600000
ITEM: NUMBER OF ATOMS
896
ITEM: BOX BOUNDS pp pp ff
-1.7300000000000001e+01 1.6899999999999999e+01
-1.8300000000000001e+01 1.7800000000000001e+01
-5.0000000000000000e+01 5.0000000000000000e+01
ITEM: ATOMS q 
0.0203734 
0.0247837 
0.00162318 
0.0214167 
0.0288381 
-0.0072266 
0.0517089 
0.0115948 
0.049321 
0.00400151 
-0.0126574 
-0.00703944 
-0.00345416 
-0.0261767 
0.0135107 
0.0298386 
0.0362319 
0.0363282 
0.0391912 
0.0604513 
0.0250947 
0.0325012 
0.00607419 
0.00758152 
-0.00162254 
0.00597191 
0.0348901 
0.0238609 
2.37083e-06 
-0.00139777 
-1.60182e-05 
2.23211e-05 
-0.000674758 
2.35111e-05 
0.000117291 
0.000194033 
9.332e-05 
0.000244181 
0.000303395 
0.000325989 
-8.63507e-06 
0.000501647 
-2.59675e-05 
2.31508e-05 
-1.16629e-05 
1.99055e-05 
-0.00262085 
-3.12765e-06 
-1.02684e-05 
-4.51955e-06 
-3.37962e-06 
-2.42274e-06 
-5.40873e-06 
-2.76423e-06 
-1.2347e-05 
-4.76765e-06 
-4.73621e-06 
-4.05362e-06 
-3.45732e-06 
-1.02761e-05 
-2.85817e-06 
3.16196e-07 
-2.79272e-06 
-1.63416e-06 
0.00582648 
6.3991e-05 
9.85583e-05 
0.000124856 
-1.48369e-05 
0.00230185 
-3.3624e-05 
-1.0513e-05 
-0.00265618 
-1.00321e-05 
0.010644 
3.74681e-06 
0.00597523 
2.25825e-05 
-1.80811e-05 
-4.0474e-05 
-4.0857e-05 
-0.0045326 
-5.1705e-06 
-0.00495927 
-5.23906e-05 
-2.2974e-06 
-1.477e-06 
-2.93299e-06 
-1.60222e-06 
-2.84439e-05 
-4.49066e-06 
-2.26133e-05 
3.01026e-07 
-1.26161e-06 
-2.6711e-06 
-1.91289e-06 
-2.11441e-05 
-3.63796e-06 
-1.39906e-06 
-1.78812e-06 
1.0252e-06 
4.7206e-07 
-0.00426951 
-0.00342646 
-2.93234e-05 
5.16796e-05 
0.000619691 
0.000276506 
9.88435e-06 
2.4758e-05 
0.000312359 
7.65072e-05 
0.0078589 
8.22845e-05 
0.0340635 
0.000863999 
0.0110629 
0.000245823 
0.000280675 
1.52243e-05 
0.0149728 
2.11662e-05 
0.000301163 
0.0289431 
0.0186737 
-3.81509e-06 
-2.34254e-06 
-1.76695e-05 
-3.34981e-06 
-1.26154e-05 
-4.79139e-06 
-5.15827e-06 
-3.37496e-06 
-1.68069e-05 
-4.96153e-07 
-5.89942e-06 
-8.64904e-06 
-7.18933e-06 
-2.25926e-05 
-1.08441e-05 
-3.33964e-06 
-7.78541e-06 
-2.52275e-05 
-3.67848e-06 
-2.11514e-06 
-2.63695e-05 
-4.13454e-06 
-1.09987e-06 
-2.08869e-06 
-1.33206e-05 
1.19922e-05 
6.27648e-06 
-1.97098e-05 
-0.00278973 
4.31664e-06 
-4.9717e-05 
-0.00401884 
-2.39123e-05 
2.83157e-05 
0.000187451 
-3.61021e-05 
0.00230747 
-3.70201e-05 
-4.20169e-07 
3.51039e-06 
0.000813899 
-3.41003e-05 
0.00904783 
-3.0238e-06 
0.00174019 
0.0250861 
-3.75886e-06 
-2.57531e-06 
-1.32052e-06 
-2.38595e-06 
-2.17606e-06 
-2.52993e-05 
-6.97736e-08 
-5.51766e-07 
-5.65968e-06 
-1.29697e-06 
-2.69293e-05 
-1.97391e-06 
-9.27455e-05 
-0.000101094 
-9.58363e-05 
-2.53544e-05 
-8.86736e-05 
-1.43684e-05 
-1.91689e-05 
-1.57629e-05 
-2.83258e-05 
-7.78546e-05 
-0.000103524 
-4.99938e-05 
-9.69471e-05 
-5.73241e-05 
-6.45763e-05 
-9.0269e-05 
-8.67294e-05 
-3.21493e-05 
-4.30775e-05 
-9.71085e-05 
-3.01303e-05 
-8.30511e-05 
-4.38812e-05 
-0.000102383 
-3.37078e-05 
-9.08026e-05 
-7.41424e-05 
-6.41457e-05 