ITEM: TIMESTEP
5000000
ITEM: NUMBER OF ATOMS
896
ITEM: BOX BOUNDS pp pp ff
-1.7300000000000001e+01 1.6899999999999999e+01
-1.8300000000000001e+01 1.7800000000000001e+01
-5.0000000000000000e+01 5.0000000000000000e+01
ITEM: ATOMS q 
0 
0 
0 
0 
0 
0 
0 
0 
0 
0 
0 
0 
0 
0 
0 
0 
0 
0 
0 
0 
0 
0 
0 
0 
0 
0 
0 
0 
0 
0 
0 
0 
0 
0 
0 
0 
0 
0 
0 
0 
0 
0 
0 
0 
0 
0 
0 
0 
0 
0 
0 
0 
0 
0 
0 
0 
0 
0 
0 
0 
0 
0 
0 
0 
0 
0 
0 
0 
0 
0 
0 
0 
0 
0 
0 
0 
0 
0 
0 
0 
0 
0 
0 
0 
0 
0 
0 
0 
0 
0 
0 
0 
0 
0 
0 
0 
0 
0 
0 
0 
0 
0 
0 
0 
0 
0 
0 
0 
0 
0 
0 
0 
0 
0 
0 
0 
0 
0 
0 
0 
0 
0 
0 
0 
0 
0 
0 
0 
0 
0 
0 
0 
0 
0 
0 
0 
0 
0 
0 
0 
0 
0 
0 
0 
0 
0 
0 
0 
0 
0 
0 
0 
0 
0 
0 
0 
0 
0 
0 
0 
0 
0 
0 
0 
0 
0 
0 
0 
0 
0 
0 
0 
0 
0 
0 
0 
0 
0 
0 
0 
0 
0 
0 
0 
0 
0 
0 
0 
0 
0 
0 
0 
0 
0 
0 
0 
0 
0 
0 
0 
0 
0 
0 
0 
0 
0 
0 
0 
0 
0 
0 
0 
0 
0 
0 
0 
0 
0 
0 
0 
0 
0 
0 
0 
0 
0 
0 
0 
0 
0 
0 
0 
0 
0 
0 
0 
0 
0 
0 
0 
0 
0 
0 
0 
0 
0 
0 
0 
0 
0 
0 
0 
0 
0 
0 
0 
0 
0 
0 
0 
0 
0 
0 
0 
0 
0 
0 
0 
0 
0 
0 
0 
0 
0 
0 
0 
0 
0 
0 
0 
0 
0 
0 
0 
0 
0 
0 
0 
0 
0 
0 
0 
0 
0 
0 
0 
0 
0 
0 
0 
0 
0 
0 
0 
0 
0 
0 
0 
0 
0 
0 
0 
0 
0 
0 
0 
0 
0 
0 
0 
0 
0 
0 
0 
0 
0 
0 
0 
0 
0 
0 
0 
0 
0 
0 
0 
0 
0 
0 
0 
0 
0 
0 
0 
0 
0 
0 
0 
0 
0 
0 
0 
0 
0 
0 
0 
0 
0 
0 
0 
0 
0 
0 
0 
0 
0 
0 
0 
0 
0 
0 
0 
0 
0 
0 
0 
0 
0 
0 
0 
0 
0 
0 
0 
0 
0 
0 
0 
0 
0 
0 
0 
0 
0 
0 
0 
0 
0 
0 
0 
0 
0 
0 
0 
0 
0 
0 
0 
0 
0 
0 
0 
0 
0 
0 
0 
0 
0 
0 
0 
0 
0 
0 
0 
0 
0 
0 
0 
0 
0 
0 
0 
0 
0 
0 
0 
0 
0 
0 
0 
0 
0 
0 
0 
0 
0 
0 
0 
0 
0 
0 
0 
0 
0 
0 
0 
0 
0 
0 
0 
0 
0 
0 
0 
0 
0 
0 
0 
0 
0 
0 
0 
0 
0 
0 
0 
0 
0 
0 
0 
0 
0 
0 
0 
0 
0 
0 
0 
0 
0 
0 
0 
0 
0 
0 
0 
0 
0 
0 
0 
0 
0 
0 
0 
0 
0 
0 
0 
0 
0 
0 
0 
0 
0 
0 
0 
0 
0 
0 
0 
0 
0 
0 
0 
0 
0 
0 
0 
0 
0 
0 
0 
0 
0 
0 
0 
0 
0 
0 
0 
0 
0 
0 
0 
0 
0 
0 
0 
0 
0 
0 
0 
0 
0 
0 
0 
0 
0 
0 
0 
0 
0 
0 
0 
0 
0 
0 
0 
0 
0 
0 
0 
0 
0 
0 
0 
0 
0 
0 
0 
0 
0 
0 
0 
0 
0 
0 
0 
0 
0 
0 
0 
0 
0 
0 
0 
0 
0 
0 
0 
0 
0 
0 
0 
0 
0 
0 
0 
0 
0 
0 
0 
0 
0 
0 
0 
0 
0 
0 
0 
0 
0 
0 
0 
0 
0 
0 
0 
0 
0 
0 
0 
0 
0 
0 
0 
0 
0 
0 
0 
0 
0 
0 
0 
0 
0 
0 
0 
0 
0 
0 
0 
0 
0 
0 
0 
0 
0 
0 
0 
0 
0 
0 
0 
0 
0 
0 
0 
0 
0 
0 
0 
0 
0 
0 
0 
0 
0 
0 
0 
0 
0 
0 
0 
0 
0 
0 
0 
0 
0 
0 
0 
0 
0 
0 
0 
0 
0 
0 
0 
0 
0 
0 
0 
0 
0 
0 
0 
0 
0 
0 
0 
0 
0 
0 
0 
0 
0 
0 
0 
0 
0 
0 
0 
0 
0 
0 
0 
0 
0 
0 
0 
0 
0 
0 
0 
0 
0 
0 
0 
0 
0 
0 
0 
0 
0 
0 
0 
0 
0 
0 
0 
0 
0 
0 
0 
0 
0 
0 
0 
0 
0 
0 
0 
0 
0 
0 
0 
0 
0 
0 
0 
0 
0 
0 
0 
0 
0 
0 
0 
0 
0 
0 
0 
0 
0 
0 
0 
0 
0 
0 
0 
0 
0 
0 
0 
0 
0 
0 
0 
0 
0 
0 
0 
0 
0 
0 
0 
0 
0 
0 
0 
0 
0 
0 
0 
0 
0 
0 
0 
0 
0 
0 
0 
0 
0 
0 
0 
0 
0 
0 
0 
0 
0 
0 
0 
0 
0 
0 
0 
0 
0 
0 
0 
0 
0 
0 
0 
0 
0 
0 
0 
0 
0 
0 
0 
0 
0 
0 
0 
0 
0 
0 
0 
0 
0 
0 
0 
0 
0 
0 
0 
0 
0 
0 
0 
0 
0 
0 
0 
0 
0 
0 
0 
0 
0 
0 
0 
0 
0 
0 
0 
0 
0 
0 
0 
ITEM: TIMESTEP
5200000
ITEM: NUMBER OF ATOMS
896
ITEM: BOX BOUNDS pp pp ff
-1.7300000000000001e+01 1.6899999999999999e+01
-1.8300000000000001e+01 1.7800000000000001e+01
-5.0000000000000000e+01 5.0000000000000000e+01
ITEM: ATOMS q 
-2.69737e-05 
-7.32718e-05 
-1.86177e-05 
-1.94816e-05 
-0.000117176 
-3.2678e-05 
-9.85122e-05 
-5.73495e-05 
-9.86483e-05 
-9.56937e-05 
-2.16605e-05 
-4.05164e-05 
-5.67511e-05 
-7.82796e-05 
-3.48774e-05 
-3.91148e-05 
-3.96618e-05 
-9.89273e-05 
-9.2905e-05 
-4.19327e-05 
-3.16563e-05 
-0.000126422 
-4.74074e-05 
-4.11822e-05 
-8.73191e-05 
-3.99496e-05 
-0.000113153 
-4.14422e-05 
-6.40796e-05 
-0.000109488 
-3.97353e-05 
-4.00617e-05 
-0.00010589 
-9.26646e-05 
-2.95035e-05 
-3.1048e-05 
-3.38794e-05 
-4.35693e-05 
-4.95809e-05 
-8.16061e-05 
-6.04211e-05 
-3.50675e-05 
-1.18675e-05 
-5.24073e-07 
-2.40015e-06 
-3.28069e-07 
1.26994e-06 
-1.93465e-06 
-2.3946e-06 
-1.45897e-06 
-2.82455e-06 
-2.56319e-06 
-1.18898e-05 
5.49113e-07 
-1.20901e-05 
-1.22796e-07 
-7.89104e-08 
-1.62552e-06 
2.18094e-07 
-6.26854e-05 
-0.00199982 
-2.45797e-05 
-0.00378181 
-0.000191566 
-0.000464658 
-6.41654e-05 
-0.0122804 
-0.000113495 
-0.00646198 
-0.000253968 
-3.10257e-05 
-0.000103218 
-0.00415004 
-1.96676e-05 
-0.0106195 
-0.000120262 
-2.29453e-05 
-0.000211899 
-0.00011275 
-0.00306905 
-0.00985321 
1.37614e-06 
-4.61144e-07 
1.74714e-07 
1.5794e-06 
-4.82344e-07 
-2.19391e-07 
-3.09763e-05 
-1.29375e-06 
-1.67357e-05 
-4.39668e-09 
-2.20912e-05 
1.0725e-06 
2.90114e-07 
-1.81666e-06 
-7.15835e-07 
-9.7328e-07 
-2.4717e-05 
-4.31645e-08 
-0.000229919 
7.5115e-06 
-0.00032373 
-5.48681e-05 
-0.0146498 
-8.14963e-07 
-0.00471267 
-3.3938e-05 
-8.75121e-05 
-0.000144046 
-4.1201e-05 
-0.00773947 
-7.66789e-06 
5.812e-06 
-0.0103724 
-0.000143767 
-3.95917e-05 
1.81432e-05 
-0.0118734 
-0.0160612 
1.8468e-07 
-3.57482e-06 
-1.6105e-05 
-1.79085e-06 
-2.47276e-07 
-9.9061e-07 
-9.41776e-07 
-9.88406e-07 
-2.33788e-05 
-7.07852e-07 
-1.82235e-06 
-1.86522e-05 
-1.17881e-06 
-1.45304e-06 
6.61209e-06 
-2.74182e-05 
2.11051e-06 
-2.18052e-06 
-0.00643029 
-0.00853386 
-2.3795e-05 
-3.8741e-05 
-0.00324471 
-8.42277e-05 
-0.00336852 
-7.11307e-06 
-1.6645e-05 
-0.000249755 
-0.00791807 
-1.89777e-06 
-5.71839e-06 
-4.98669e-05 
-0.000108391 
-0.00594231 
6.48153e-06 
-5.93846e-05 
-1.57645e-05 
-0.0166126 
-2.02669e-05 
1.77733e-06 
-2.39131e-05 
-1.8504e-07 
-6.64169e-07 
1.66666e-06 
-7.12685e-08 
-1.48042e-07 
1.22779e-07 
1.24315e-07 
-2.68615e-05 
-3.61651e-07 
1.01061e-06 
-2.73471e-07 
4.64908e-07 
-3.14275e-05 
-2.32601e-07 
-1.06701e-06 
-0.0102142 
-0.0106375 
-9.34921e-05 
-1.67328e-05 
-0.00962704 
-8.20157e-05 
-1.06407e-05 
6.55371e-06 
-0.00935758 
2.10634e-05 
-0.015829 
4.69193e-05 
2.32567e-05 
-2.29494e-05 
-0.00835752 
-1.55286e-05 
8.35661e-06 
-1.77084e-05 
3.5788e-05 
-0.0162801 
3.50832e-05 
-0.0308691 
-0.0385857 
-0.043793 
-0.0340524 
-0.0399098 
-0.0333295 
-0.0178922 
-0.01943 
-0.0292173 
-0.0238502 
-0.00912169 
-0.0288014 
-0.0175375 
-0.0357838 
-0.0307405 
-0.0319065 
-0.0164117 
-0.0382621 
-0.0227165 
-0.0184887 
-0.0299348 
-0.0142023 
-0.0299314 
-0.0239756 
-0.0194894 
-0.0299788 
-0.0304966 
-0.0315339 
-3.45132e-05 
-9.30741e-05 
-5.22158e-05 
-7.57096e-05 
-3.47308e-05 
-8.43672e-05 
-6.59733e-05 
-4.40222e-05 
-0.000105482 
-9.23231e-05 
-5.04631e-05 
-7.54679e-05 
-4.95729e-05 
-4.17563e-05 
-5.10759e-05 
-6.89033e-05 
-4.41199e-05 
-5.90806e-05 
-5.33141e-05 
-5.144e-05 
-1.53837e-05 
-9.18664e-05 
-2.50839e-05 
-9.60861e-05 
-0.000105077 
-2.80781e-05 
-1.33927e-05 
-8.03357e-05 
-9.81589e-05 
-1.90945e-05 
-0.000105936 
-9.99572e-05 
-3.11565e-05 
-5.85838e-05 
-9.93073e-05 
-3.36318e-05 
-5.09477e-05 
-8.87163e-05 
-4.3888e-05 
-6.69244e-05 
-9.30994e-05 
-7.63343e-07 
-2.08947e-06 
6.66707e-07 
-2.37453e-05 
-1.93411e-06 
-2.74696e-05 
4.30276e-07 
-2.15037e-06 
-1.75802e-06 
-1.8396e-05 
6.02223e-08 
-7.46166e-07 
-3.38295e-07 
-1.34325e-05 
-1.1162e-06 
-2.15947e-06 
1.03375e-07 
-5.8258e-07 
-1.69997e-05 
-0.00920246 
-0.00716548 
-0.00012561 
-0.00945828 
-4.4082e-05 
-2.39123e-05 
-7.8425e-05 
-0.00460855 
1.54199e-05 
-0.00414788 
-1.10635e-05 
-0.000190746 
-0.00038875 
-4.03669e-05 
-3.52723e-06 
-0.000180289 
-0.000207381 
-3.04287e-05 
-0.0100478 
-0.000146034 
3.15831e-08 
-2.80799e-05 
2.51965e-07 
-2.70052e-05 
-8.6198e-07 
1.10039e-06 
-5.82606e-07 
1.36054e-06 
1.63722e-06 
-1.75242e-06 
-1.78494e-06 
-1.23868e-06 
-2.62559e-05 
-2.10011e-06 
-7.98724e-07 
-5.68029e-07 
1.38988e-07 
-0.015445 
-0.0143463 
-2.755e-05 
-4.00682e-05 
-0.00452484 
2.38332e-05 
-0.000183197 
-5.72768e-06 
-5.61001e-05 
-0.000109215 
-0.0135299 
1.58761e-05 
-0.0128476 
-2.13461e-05 
-2.54031e-05 
-7.81939e-05 
2.42924e-06 
-0.0037676 
-2.95125e-05 
-2.98349e-05 
-0.0135326 
-0.000105173 
-0.00352773 
-1.93112e-06 
7.86627e-07 
-3.7438e-08 
-8.8258e-06 
-2.35344e-06 
-3.0883e-06 
-3.25201e-06 
-1.10962e-06 
6.52385e-08 
-1.1207e-05 
1.60352e-06 
-3.47443e-06 
-1.65813e-06 
-1.25568e-05 
-1.50091e-06 
2.55546e-06 
-1.70578e-06 
-0.000289101 
-0.000353408 
-3.62234e-05 
-0.00217713 
-6.00117e-05 
-0.00375231 
-0.000188262 
-5.89585e-05 
-0.00734052 
-3.47086e-05 
-0.000250961 
-0.00737054 
-5.49266e-05 
-3.75194e-05 
-0.00508193 
-6.75595e-05 
-0.000201704 
-0.000292864 
-8.20167e-05 
-3.14665e-05 
-0.00523534 
-0.0144832 
-2.47066e-06 
-8.6607e-07 
-2.19139e-05 
1.00376e-07 
-6.24084e-07 
-3.64578e-07 
1.95304e-06 
1.03743e-06 
-2.57419e-06 
-1.72351e-06 
-1.13581e-06 
-2.37903e-05 
1.44258e-06 
-2.89407e-05 
1.23743e-06 
-1.8926e-07 
-9.97069e-07 
-7.96599e-05 
-0.00564557 
-0.0001435 
-5.10003e-05 
-0.00692577 
-4.89942e-05 
-9.38414e-05 
-8.84251e-05 
-0.0081293 
-3.7561e-05 
-0.0102242 
-4.45098e-05 
-0.000116505 
-0.000118737 
-5.19929e-05 
-0.0187528 
-7.23389e-05 
-8.39524e-05 
-0.0116152 
1.66101e-05 
-0.013565 
-0.0329904 
-0.0151878 
-0.0318716 
-0.0071163 
-0.0206938 
-0.0178028 
-0.0158063 
-0.026166 
-0.0294905 
-0.00702733 
-0.0270655 
-0.0124552 
-0.0171006 
-0.0300572 
-0.0328238 
-0.0208295 
-0.0231191 
-0.0247814 
-0.0392969 
-0.0492886 
-0.0148243 
-0.0288752 
-0.0142822 
-0.0334312 
-0.0287978 
-0.0110016 
-0.0357093 
-4.07921e-05 
-9.32575e-05 
-2.73571e-05 
-2.97918e-05 
-5.25934e-05 
-9.34897e-05 
-3.26653e-05 
-2.98435e-05 
-9.72441e-05 
-5.95625e-05 
-0.000115788 
-6.85812e-05 
-0.000122935 
-3.64626e-05 
-2.1224e-05 
-9.91516e-05 
-4.04877e-05 
-9.78562e-05 
-4.45109e-05 
-0.000115895 
-2.87601e-05 
-4.87241e-05 
-4.29526e-05 
-3.7917e-05 
-8.22153e-05 
-5.44734e-05 
-0.000105707 
-2.80728e-05 
-4.21469e-05 
-6.81899e-05 
-6.62206e-05 
-7.25291e-05 
-4.32966e-05 
-0.000103752 
-2.25111e-05 
-0.000120059 
-9.84266e-05 
-2.1204e-05 
-9.98673e-05 
-9.70991e-05 
-8.96109e-05 
1.23043e-06 
-7.5124e-07 
-7.99775e-07 
-1.59881e-06 
-1.66205e-06 
-5.57317e-09 
-1.69736e-06 
-5.19279e-07 
-2.42181e-07 
-6.77474e-07 
-2.61351e-05 
-1.1382e-06 
-1.16721e-05 
-1.57948e-06 
6.13928e-07 
4.60483e-07 
-1.68697e-05 
-9.26258e-05 
-0.00392618 
-1.29884e-05 
-3.21188e-05 
-0.000141999 
-0.00555661 
-8.26306e-05 
-0.00652442 
-4.47688e-05 
-0.000263177 
-4.70253e-05 
-0.0101773 
-1.81434e-05 
-0.00012774 
-0.00893806 
-0.00409013 
-3.90865e-05 
-4.91757e-05 
-5.72523e-05 
-3.2779e-05 
-0.00806524 
-0.00490887 
-1.22267e-05 
-3.40802e-06 
-2.62734e-07 
6.14603e-07 
-2.53057e-06 
-2.6803e-06 
-3.48757e-06 
-9.08358e-07 
-1.7672e-06 
-1.3775e-05 
-3.64392e-07 
-1.21137e-06 
-2.50948e-07 
-2.93165e-06 
-2.67008e-06 
-2.63587e-06 
-1.09881e-05 
-0.00409166 
-4.07809e-05 
-0.00314061 
-1.74766e-05 
-7.32503e-07 
-0.00016167 
-7.43374e-05 
-0.00125509 
-1.16249e-05 
-1.64894e-05 
-7.12976e-05 
-3.84666e-05 
-0.00389307 
-0.000416071 
-0.000278383 
-2.50786e-05 
-7.57054e-05 
-0.00257512 
-1.59125e-06 
9.38154e-09 
8.53259e-07 
-2.60754e-05 
-5.64798e-07 
-1.86685e-05 
-1.36821e-06 
-1.70536e-06 
-8.72166e-07 
6.39119e-08 
7.34699e-07 
-1.11171e-06 
-2.97416e-05 
-1.32774e-06 
-1.97917e-05 
-2.9227e-07 
-7.10533e-07 
-5.69669e-07 
-0.00624824 
-9.40124e-06 
-9.15845e-05 
1.21118e-05 
-0.00822814 
4.18614e-05 
-0.00914526 
-0.000139305 
-3.19978e-05 
-0.00530797 
-0.00433842 
2.89665e-06 
4.28831e-05 
-0.0180686 
3.41454e-05 
5.00702e-05 
-0.00510021 
4.57594e-05 
1.33052e-05 
-3.87938e-06 
-0.00940613 
-2.49854e-05 
-1.17539e-06 
5.57639e-07 
-1.30227e-05 
1.76365e-06 
-1.7307e-06 
-2.40423e-06 
-9.49325e-06 
3.11091e-07 
1.07687e-06 
-6.56775e-07 
-1.66585e-05 
5.03056e-06 
-1.95141e-05 
-1.3948e-07 
-6.24287e-07 
-7.94624e-07 
-1.18379e-05 
1.98465e-06 
-1.63348e-05 
4.81864e-07 
-0.00275161 
-5.39985e-05 
-5.82032e-05 
-0.000185906 
-0.0139466 
6.57097e-06 
-0.00435414 
2.14245e-05 
-0.000506026 
-0.000230292 
-0.000113801 
5.06962e-06 
-0.0125624 
-1.67785e-05 
-2.64348e-05 
-2.92684e-05 
-3.59928e-05 
-0.0052954 
-2.84009e-05 
-0.00900148 
-0.0205713 
-0.0264606 
-0.0216417 
-0.0134757 
-0.0164988 
-0.0160448 
-0.0163616 
-0.00504213 
-0.0188821 
-0.0367905 
-0.00855554 
-0.0132531 
-0.0072999 
-0.0230201 
-0.0203651 
-0.036576 
-0.0307398 
-0.0290236 
-0.0174234 
-0.00872619 
-0.0187063 
-0.0190518 
-0.0256352 
-0.0284879 
-0.029256 
-0.0299005 
-0.014949 
-0.0119986 
-0.0419519 
-4.10049e-05 
-5.9551e-05 
-6.95216e-05 
-7.39702e-05 
-3.11661e-05 
-6.02656e-05 
-4.7515e-05 
-4.62524e-05 
-2.95444e-05 
-8.70017e-05 
-8.89747e-05 
-4.7547e-05 
-8.5572e-05 
-4.17341e-05 
-3.48651e-05 
-7.34925e-05 
-3.47456e-05 
-0.000103757 
-5.94398e-05 
-5.77591e-05 
-5.87462e-05 
-6.15966e-05 
-9.65284e-05 
-3.32994e-05 
-9.16345e-05 
-2.83862e-05 
-4.62171e-05 
-0.000106417 
-9.22892e-05 
-2.80496e-05 
-9.92851e-05 
-3.05856e-05 
-9.73804e-05 
-0.000123557 
-0.000106345 
-2.0532e-05 
-3.74713e-05 
-1.76961e-05 
-7.61042e-05 
-1.80216e-05 
-2.50618e-05 
-0.000107002 
-0.000104996 
-1.28209e-06 
-2.62751e-07 
-9.32036e-08 
-2.82242e-05 
-1.17715e-06 
-1.96667e-05 
-1.84463e-06 
2.79419e-07 
-1.46968e-06 
-5.66046e-07 
-1.67995e-06 
2.85491e-06 
-2.86685e-05 
5.47752e-07 
-6.00142e-07 
2.4137e-09 
1.6893e-06 
-1.84708e-05 
-0.00860097 
-0.00252187 
7.82396e-06 
-3.97577e-06 
-0.0140444 
-4.59574e-06 
-0.00800311 
3.61675e-05 
-1.99961e-05 
-1.61331e-05 
-0.0116672 
-0.00030569 
-5.91576e-06 
-7.05708e-05 
-0.000129902 
-0.0127044 
1.49184e-05 
-3.78697e-05 
-6.81615e-05 
-0.0144894 
-0.000162704 
-7.65412e-07 
-1.94834e-05 
-1.25695e-06 
-7.3178e-07 
-1.1236e-06 
-3.29056e-07 
-9.71514e-07 
-2.32741e-05 
-8.93873e-08 
1.68362e-06 
-1.6392e-06 
1.4562e-06 
3.76726e-07 
-1.73629e-05 
9.36396e-07 
-1.04252e-06 
-2.94325e-06 
-0.00511476 
-0.00575047 
-0.000132084 
-6.96797e-05 
-0.00596176 
-6.48307e-05 
-0.00616338 
-8.65912e-05 
-0.000121909 
-2.92871e-05 
-0.00371871 
-2.32291e-05 
-0.00273282 
-0.000346563 
-4.90407e-05 
-0.00453239 
-3.5041e-05 
-0.000273942 
-0.000146515 
-2.05191e-05 
-0.00772277 
-5.85832e-05 
-2.1989e-05 
-0.0159361 
-0.00968783 
-1.57269e-07 
-9.99608e-07 
-2.64541e-07 
1.53048e-06 
-1.13197e-06 
-4.55599e-09 
1.53258e-06 
-1.31916e-05 
2.53625e-07 
-2.74754e-05 
-8.88178e-07 
-2.06551e-05 
-5.52676e-07 
1.86847e-06 
2.38896e-06 
-2.68659e-06 
-2.59445e-06 
-2.88731e-05 
-0.000149212 
-0.00953633 
-0.000182329 
-0.00951867 
-2.76373e-05 
-5.89027e-05 
-0.000305356 
-0.00542865 
-0.00746776 
-5.57526e-05 
-3.4943e-05 
-8.26049e-05 
-0.000187169 
-0.0068562 
-1.63897e-05 
-1.58202e-05 
-0.000166167 
-8.55511e-05 
-1.67531e-05 
-0.00666919 
-0.00486628 
2.07235e-06 
-3.45888e-06 
6.00083e-07 
5.07822e-06 
1.95144e-06 
-3.16549e-07 
-4.66622e-06 
2.61736e-06 
-6.55143e-08 
-1.86751e-06 
-3.50076e-06 
5.23898e-06 
1.50485e-06 
-8.40885e-06 
4.27009e-07 
-0.000432749 
-5.42628e-05 
-5.59615e-05 
-0.00368009 
-0.000425382 
-3.31452e-05 
-2.70679e-06 
-0.000286531 
-0.000420686 
-2.38966e-05 
-6.48417e-05 
-0.000223111 
-0.0049642 
-0.000104125 
-3.1416e-05 
-0.000379146 
-0.00936117 
-0.0327237 
-0.033095 
-0.0218044 
-0.0146636 
-0.0363315 
-0.0596625 
-0.0208193 
-0.0186396 
-0.0464932 
-0.02758 
-0.0291138 
-0.0377204 
-0.0289342 
-0.0326235 
-0.0207761 
-0.0487302 
-0.0298639 
-0.02999 
-0.0147658 
-0.0304864 
-0.0168645 
-0.034695 
-0.0501801 
-0.0110087 
-0.0087004 
-0.0161943 
-0.0385217 
-0.0339944 
-0.0147225 
ITEM: TIMESTEP
5400000
ITEM: NUMBER OF ATOMS
896
ITEM: BOX BOUNDS pp pp ff
-1.7300000000000001e+01 1.6899999999999999e+01
-1.8300000000000001e+01 1.7800000000000001e+01
-5.0000000000000000e+01 5.0000000000000000e+01
ITEM: ATOMS q 
-8.54491e-06 
-2.26976e-05 
-5.57594e-06 
-6.53785e-06 
-3.74462e-05 
-1.03713e-05 
-3.12094e-05 
-1.74239e-05 
-3.08654e-05 
-3.04039e-05 
-7.47109e-06 
-1.31675e-05 
-1.82118e-05 
-2.46332e-05 
-1.16668e-05 
-1.28584e-05 
-1.23852e-05 
-3.06296e-05 
-2.92457e-05 
-1.41933e-05 
-1.02842e-05 
-4.0625e-05 
-1.50637e-05 
-1.31235e-05 
-2.761e-05 
-1.27945e-05 
-3.59123e-05 
-1.29339e-05 
-2.03024e-05 
-3.49185e-05 
-1.2979e-05 
-1.29917e-05 
-3.33904e-05 
-2.90741e-05 
-9.73944e-06 
-1.09166e-05 
-1.1275e-05 
-1.42024e-05 
-1.62355e-05 
-2.60561e-05 
-1.94134e-05 
-1.16247e-05 
-4.5544e-06 
2.40092e-06 
-1.72309e-06 
1.46269e-06 
2.17936e-06 
-7.37277e-07 
-9.83218e-07 
-1.37324e-07 
-1.951e-06 
-1.43904e-06 
-3.78991e-06 
1.77312e-06 
-3.68143e-06 
1.4761e-07 
2.44424e-07 
-5.34945e-07 
1.27647e-06 
-3.66202e-05 
-0.00266003 
-1.61207e-05 
-0.00424316 
-0.000113804 
-0.000333535 
-1.97967e-05 
-0.00433679 
-4.41171e-05 
-0.00224084 
-8.91742e-05 
-1.86911e-05 
-5.09586e-05 
-0.00247486 
-9.60638e-06 
-0.00414711 
-0.000116231 
-1.76191e-05 
-0.000115365 
-4.49213e-05 
-0.00413887 
-0.00371774 
1.14479e-06 
9.71404e-07 
9.86601e-07 
1.45005e-06 
1.30747e-06 
1.28033e-06 
-1.00727e-05 
1.67194e-07 
-6.50157e-06 
6.54472e-07 
-7.99502e-06 
1.39761e-06 
1.03552e-06 
1.84724e-07 
8.40623e-07 
2.05425e-06 
-9.1313e-06 
1.63235e-06 
-8.44125e-05 
6.9139e-06 
-0.00016174 
-8.42563e-05 
-0.00737643 
6.62965e-07 
-0.00849134 
-4.13398e-05 
-0.000172318 
-5.61066e-05 
-4.70949e-05 
-0.00300444 
-1.90347e-05 
-9.61863e-07 
-0.0141232 
-5.65858e-05 
-2.31274e-05 
3.24222e-05 
-0.00932574 
-0.00824607 
7.76605e-07 
-7.73735e-07 
-4.84622e-06 
-6.81592e-07 
4.93033e-07 
-7.79433e-07 
-6.03227e-07 
-2.53068e-07 
-7.29893e-06 
7.76352e-07 
3.89347e-07 
-5.84233e-06 
2.08781e-06 
7.47896e-07 
1.95091e-06 
-8.81662e-06 
2.50123e-06 
-2.54313e-07 
-0.00460494 
-0.00395414 
-3.44703e-05 
-4.85186e-05 
-0.00634064 
-4.932e-05 
-0.00491684 
-6.8388e-06 
-1.96452e-05 
-0.000186538 
-0.00334773 
7.12122e-06 
-2.92354e-05 
-0.000136215 
-0.000127663 
-0.0125696 
-7.53375e-06 
-9.08646e-06 
-1.41254e-05 
-0.0144544 
-9.10469e-05 
9.2336e-07 
-8.47262e-06 
3.52691e-07 
1.31539e-07 
1.77072e-06 
3.38363e-07 
1.66452e-06 
8.77776e-07 
9.37735e-07 
-8.77831e-06 
1.68616e-06 
2.8762e-06 
1.05895e-07 
8.38688e-07 
-1.04791e-05 
8.57837e-07 
9.58689e-07 
-0.0044783 
-0.00578719 
-2.34571e-05 
-6.82931e-06 
-0.00597597 
-5.99367e-05 
4.37363e-05 
1.02181e-05 
-0.00600081 
2.82607e-05 
-0.00919965 
6.34042e-05 
2.09732e-05 
-1.25433e-05 
-0.00986747 
-7.8743e-05 
2.0768e-05 
7.54452e-06 
4.833e-05 
-0.0142895 
3.78082e-05 
-0.0310647 
-0.0202531 
-0.0170337 
-0.026707 
-0.0168059 
-0.0220386 
-0.00746703 
-0.00737654 
-0.016879 
-0.0297874 
-0.0345298 
-0.0195584 
-0.00659217 
-0.0104643 
-0.0200043 
-0.0260839 
-0.0262486 
-0.0284841 
-0.0118809 
-0.0334366 
-0.0280628 
-0.0294346 
-0.018677 
-0.0142972 
-0.0127658 
-0.0225379 
-0.0133772 
-0.0219117 
-1.14424e-05 
-2.87591e-05 
-1.71907e-05 
-2.4238e-05 
-1.2738e-05 
-2.70619e-05 
-2.09643e-05 
-1.53447e-05 
-3.20416e-05 
-2.96076e-05 
-1.59089e-05 
-2.39273e-05 
-1.55936e-05 
-1.27536e-05 
-1.68068e-05 
-2.15159e-05 
-1.4017e-05 
-1.83183e-05 
-1.64998e-05 
-1.61003e-05 
-4.42344e-06 
-2.87185e-05 
-9.0614e-06 
-3.08264e-05 
-3.18269e-05 
-1.04612e-05 
-4.14145e-06 
-2.4596e-05 
-3.08651e-05 
-6.80165e-06 
-3.27025e-05 
-3.07922e-05 
-1.00323e-05 
-1.90442e-05 
-3.13043e-05 
-1.15308e-05 
-1.66834e-05 
-2.78774e-05 
-1.45737e-05 
-2.10618e-05 
-2.87381e-05 
2.76671e-06 
1.29783e-06 
3.61066e-06 
-9.40176e-06 
2.27704e-06 
-9.84332e-06 
4.22931e-06 
2.32826e-06 
3.0848e-07 
-6.65097e-06 
1.2947e-07 
-2.84085e-07 
9.37745e-07 
-5.23844e-06 
1.48322e-06 
1.87963e-07 
2.22525e-06 
3.3295e-06 
-7.05317e-06 
-0.0211857 
-0.00877305 
-0.000241994 
-0.0139806 
-2.94387e-05 
-5.35275e-05 
-6.89909e-05 
-0.00330715 
6.01635e-06 
-0.00655141 
-3.95092e-06 
-0.000226364 
-0.000198168 
-1.84898e-05 
-9.11486e-06 
-0.000137741 
-0.000130739 
-2.14909e-05 
-0.00623315 
-9.26108e-05 
4.28464e-06 
-9.14494e-06 
2.8339e-06 
-8.77332e-06 
2.2434e-06 
2.08537e-06 
-8.49327e-07 
2.82228e-06 
4.8032e-07 
6.55853e-07 
5.49235e-08 
7.39705e-07 
-7.88901e-06 
4.80339e-06 
1.44459e-07 
-1.8619e-06 
-1.74015e-06 
-0.0229607 
-0.012381 
-8.12805e-05 
-0.000129389 
-0.0222258 
1.82225e-05 
-0.0149113 
-4.16184e-05 
-0.000154445 
-6.14789e-05 
-0.00906078 
-1.0285e-06 
-0.00395534 
-4.96159e-05 
-8.37591e-05 
-9.77629e-05 
7.0601e-06 
-0.00853325 
-1.07614e-05 
3.4605e-05 
-0.00356509 
-3.72464e-05 
-0.00395512 
-4.65987e-07 
5.07074e-06 
2.71083e-06 
-3.81928e-06 
1.43865e-06 
-7.78413e-07 
1.27589e-06 
1.73764e-06 
3.9395e-06 
-4.08394e-06 
4.1501e-06 
-1.43678e-06 
2.39092e-07 
-5.94492e-06 
1.72725e-06 
3.12021e-06 
1.52268e-06 
-0.000215543 
-0.00052747 
-5.74275e-05 
-0.00444294 
-7.9343e-05 
-0.00368563 
-0.000192606 
-6.52671e-05 
-0.00858583 
-4.16313e-05 
-0.000355314 
-0.0103731 
-7.08889e-05 
-2.56051e-05 
-0.00679343 
-5.21004e-05 
-0.0001353 
-0.000171174 
-4.38052e-05 
-1.0028e-05 
-0.00826439 
-0.00429806 
9.25078e-07 
8.97103e-07 
-7.92909e-06 
1.1649e-07 
3.82016e-08 
1.2906e-06 
2.5948e-06 
2.58907e-06 
-8.52731e-07 
5.9163e-07 
4.50953e-07 
-8.89916e-06 
1.48151e-06 
-1.03639e-05 
1.69041e-06 
1.57827e-06 
1.14821e-06 
-8.89898e-05 
-0.00418032 
-0.000174418 
-7.02982e-05 
-0.00410034 
-3.5796e-05 
-5.95635e-05 
-4.91431e-05 
-0.00402468 
-2.30778e-05 
-0.0066559 
-1.74662e-05 
-4.08368e-05 
-3.66645e-05 
-3.70856e-05 
-0.00720457 
-1.48447e-05 
-7.07673e-05 
-0.00746788 
2.87182e-06 
-0.0217636 
-0.0177081 
-0.0221846 
-0.0267025 
-0.0217194 
-0.00754785 
-0.00907012 
-0.00817584 
-0.0460746 
-0.0294803 
-0.0191717 
-0.0528983 
-0.0256099 
-0.0366439 
-0.0214716 
-0.0303953 
-0.0285129 
-0.0400394 
-0.0350025 
-0.0310889 
-0.0322168 
-0.00668437 
-0.00981421 
-0.0140159 
-0.0151311 
-0.0189972 
-0.0300528 
-0.017055 
-1.21777e-05 
-2.96395e-05 
-8.85286e-06 
-8.82107e-06 
-1.64618e-05 
-2.98088e-05 
-1.09121e-05 
-9.17791e-06 
-3.06277e-05 
-1.88906e-05 
-3.69957e-05 
-2.10767e-05 
-3.86815e-05 
-1.10415e-05 
-7.4011e-06 
-3.08775e-05 
-1.28194e-05 
-3.1264e-05 
-1.44622e-05 
-3.6707e-05 
-9.49895e-06 
-1.48398e-05 
-1.35087e-05 
-1.262e-05 
-2.55081e-05 
-1.72034e-05 
-3.29817e-05 
-8.81013e-06 
-1.375e-05 
-2.16669e-05 
-2.03661e-05 
-2.2498e-05 
-1.29334e-05 
-3.33239e-05 
-7.17438e-06 
-3.83661e-05 
-3.17523e-05 
-6.80884e-06 
-3.20649e-05 
-3.09688e-05 
-2.84077e-05 
1.46245e-06 
-1.69903e-07 
-8.07651e-10 
-6.78046e-07 
8.80864e-08 
1.68955e-06 
1.19081e-06 
5.96643e-07 
2.51967e-06 
1.39827e-06 
-8.37264e-06 
5.66428e-07 
-3.3909e-06 
-3.94439e-07 
-1.05754e-06 
9.96436e-07 
-5.05632e-06 
-0.000135259 
-0.00669638 
-2.93521e-05 
-5.07596e-05 
-0.000203454 
-0.00517071 
-0.000194673 
-0.0148643 
-3.52442e-05 
-0.000315874 
-2.76233e-05 
-0.0146226 
-9.54033e-06 
-7.29772e-05 
-0.00310313 
-0.00096896 
-3.60614e-05 
-3.3978e-05 
-2.42766e-05 
-3.30906e-05 
-0.00771545 
-0.0083963 
-5.2877e-06 
-3.51825e-07 
2.40361e-06 
1.7394e-06 
-1.01703e-06 
-2.32354e-07 
-2.27177e-06 
1.21179e-06 
-1.98479e-07 
-4.26179e-06 
3.92174e-07 
-1.15674e-06 
5.02215e-07 
-6.69876e-08 
-1.08711e-06 
-7.57588e-07 
-3.02224e-05 
-0.0019837 
-5.34974e-05 
-0.00333892 
-2.38061e-05 
-2.16652e-06 
-0.000175516 
-8.27079e-05 
-0.0013833 
-1.26632e-05 
-1.06012e-05 
-3.82312e-05 
-4.34755e-05 
-0.0032222 
-0.000419636 
-0.000143353 
-1.87294e-05 
-8.66527e-05 
-0.00461239 
5.5218e-07 
2.76142e-06 
2.57756e-06 
-9.15157e-06 
-1.04319e-07 
-6.03309e-06 
-6.0933e-07 
1.79038e-06 
6.25362e-07 
3.82733e-07 
5.61764e-06 
8.39e-07 
-9.72206e-06 
-8.03635e-08 
-6.62043e-06 
9.9556e-07 
1.64316e-06 
-1.40393e-06 
-0.00657467 
-1.63825e-05 
2.75488e-05 
1.92994e-05 
-0.0107024 
3.43316e-05 
-0.0179995 
-0.000135265 
-3.28447e-05 
-0.00428692 
-0.0028685 
1.72234e-06 
-2.31098e-05 
-0.0326743 
-6.21346e-05 
5.99549e-05 
-0.0170916 
2.18423e-05 
-4.57593e-06 
-7.68095e-05 
-0.00567769 
-5.27606e-05 
-1.44284e-06 
-9.41362e-07 
-3.60108e-06 
3.50372e-07 
-2.0179e-08 
-4.55692e-07 
-3.16903e-06 
4.00975e-07 
-3.78475e-08 
-1.39768e-06 
-4.6004e-06 
2.50716e-06 
-5.36909e-06 
-8.54631e-07 
-1.27765e-06 
4.22771e-07 
-3.7038e-06 
2.25023e-06 
-5.4309e-06 
1.11067e-06 
-0.00411578 
-4.15339e-05 
-5.21243e-05 
-6.2537e-05 
-0.00241849 
-3.96494e-07 
-0.00249719 
4.45828e-06 
-0.000422493 
-0.000118536 
-2.67333e-06 
-1.80023e-05 
-0.00638613 
-3.42675e-05 
-1.78554e-05 
-6.92057e-05 
-0.00010187 
-0.00609864 
-6.08267e-05 
-0.0141392 
-0.027327 
-0.0152219 
-0.023762 
-0.0265294 
-0.0296016 
-0.0105605 
-0.0137404 
-0.00584116 
-0.0305579 
-0.0115305 
-0.00988269 
-0.0141365 
-0.00415745 
-0.0242965 
-0.029988 
-0.0178165 
-0.026595 
-0.038305 
-0.0235766 
-0.0228279 
-0.00594904 
-0.00998457 
0.00134398 
-0.0143915 
-0.0202395 
-0.0378921 
-0.00494786 
-0.0152732 
-0.0140729 
-1.28293e-05 
-1.89464e-05 
-2.21154e-05 
-2.33703e-05 
-9.991e-06 
-1.93276e-05 
-1.51476e-05 
-1.40741e-05 
-8.98451e-06 
-2.77932e-05 
-2.77865e-05 
-1.45332e-05 
-2.65666e-05 
-1.26576e-05 
-1.05465e-05 
-2.28805e-05 
-1.08955e-05 
-3.3044e-05 
-1.84498e-05 
-1.81916e-05 
-1.85326e-05 
-1.99866e-05 
-3.02825e-05 
-1.17202e-05 
-2.86772e-05 
-9.62071e-06 
-1.51232e-05 
-3.32657e-05 
-2.78195e-05 
-9.76069e-06 
-3.04745e-05 
-9.59113e-06 
-3.08129e-05 
-4.00711e-05 
-3.33459e-05 
-6.9222e-06 
-1.12313e-05 
-6.5545e-06 
-2.31443e-05 
-5.98468e-06 
-7.37645e-06 
-3.38119e-05 
-3.32569e-05 
5.6779e-07 
-8.80861e-07 
9.89295e-07 
-8.33528e-06 
-9.77068e-07 
-6.65781e-06 
9.09577e-07 
1.49447e-06 
1.39209e-06 
-5.44805e-07 
-4.92168e-07 
3.81765e-07 
-7.90596e-06 
5.21088e-07 
-1.17267e-06 
-1.78134e-07 
4.57546e-06 
-5.67129e-06 
-0.0205291 
-0.00359405 
3.70492e-05 
7.71109e-06 
-0.00551018 
-5.80151e-05 
-0.00600369 
3.73627e-05 
-1.45447e-05 
-4.71531e-06 
-0.0112543 
-0.000296082 
-2.54852e-06 
-3.2529e-05 
-0.000111821 
-0.00891825 
-2.4568e-05 
-6.10832e-05 
-6.54287e-05 
-0.0139809 
-0.000163215 
-8.51153e-08 
-5.89427e-06 
1.18761e-06 
-1.11164e-06 
1.41815e-06 
-6.55905e-08 
8.67752e-07 
-7.46828e-06 
7.17212e-07 
2.35083e-06 
-9.16347e-07 
2.58044e-06 
7.79172e-07 
-5.78389e-06 
4.10259e-07 
-6.56314e-07 
-7.89087e-07 
-0.00522885 
-0.0121423 
-0.000114872 
-8.19241e-05 
-0.00359113 
-5.76373e-05 
-0.00369684 
-0.000118983 
-9.75511e-05 
-4.92279e-05 
-0.00530714 
-1.15452e-05 
-0.00157432 
-0.000331181 
-4.15213e-05 
-0.00531459 
-4.68921e-05 
-0.000199829 
-0.000145428 
-6.06957e-06 
-0.00351379 
-4.81415e-05 
-6.83686e-06 
-0.0119306 
-0.00610801 
9.57609e-07 
7.37893e-07 
3.7597e-07 
1.81524e-06 
8.42897e-07 
1.34935e-06 
4.91926e-07 
-5.40724e-06 
1.53762e-06 
-9.35627e-06 
-8.11704e-07 
-7.92347e-06 
6.70802e-07 
3.46703e-06 
2.23635e-06 
-8.72571e-09 
-5.14798e-07 
-1.52822e-05 
-7.96202e-05 
-0.00566668 
-0.000105374 
-0.00597398 
-7.67061e-06 
-3.33883e-05 
-0.000118697 
-0.00129021 
-0.00407233 
-2.39286e-05 
-2.44068e-05 
-5.65242e-05 
-9.48528e-05 
-0.0051838 
-2.349e-05 
-2.53628e-05 
-0.000150114 
-0.000119952 
-5.30503e-06 
-0.0170543 
-0.00228379 
2.72339e-06 
-1.39131e-06 
1.05478e-06 
8.56047e-06 
6.78133e-06 
6.23329e-07 
-2.41895e-06 
3.52723e-06 
1.21942e-06 
-1.61943e-07 
-2.59694e-06 
6.08754e-06 
5.49387e-06 
-4.21794e-06 
3.52275e-06 
-0.000440815 
-0.000118423 
-3.63599e-05 
-0.00484898 
-0.0005421 
-4.73011e-05 
1.47239e-05 
-0.000467235 
-0.00032228 
-2.92545e-05 
-8.70995e-05 
-0.000294124 
-0.00499214 
-9.20534e-05 
-4.03299e-05 
-0.000408243 
-0.027164 
-0.0172717 
-0.0192732 
-0.0168147 
-0.00922455 
-0.0124106 
-0.0401691 
-0.0168347 
-0.0288295 
-0.0346925 
-0.0239862 
-0.0136103 
-0.0337135 
-0.0206647 
-0.0176773 
-0.00765607 
-0.0208985 
-0.0227643 
-0.0156344 
-0.00919166 
-0.0282792 
-0.0463528 
-0.0195881 
-0.0397306 
-0.024251 
-0.0389244 
-0.0253807 
-0.0359601 
-0.0118131 
-0.017931 
ITEM: TIMESTEP
5600000
ITEM: NUMBER OF ATOMS
896
ITEM: BOX BOUNDS pp pp ff
-1.7300000000000001e+01 1.6899999999999999e+01
-1.8300000000000001e+01 1.7800000000000001e+01
-5.0000000000000000e+01 5.0000000000000000e+01
ITEM: ATOMS q 
-1.4191e-05 
-3.6988e-05 
-1.02834e-05 
-1.15628e-05 
-5.89366e-05 
-1.76195e-05 
-4.96766e-05 
-2.87524e-05 
-4.94843e-05 
-4.88092e-05 
-1.12757e-05 
-2.23716e-05 
-2.96352e-05 
-3.93997e-05 
-1.94015e-05 
-2.0917e-05 
-2.0669e-05 
-4.94721e-05 
-4.60431e-05 
-2.18217e-05 
-1.68028e-05 
-6.45524e-05 
-2.39504e-05 
-2.0464e-05 
-4.48369e-05 
-1.95404e-05 
-5.79719e-05 
-2.0771e-05 
-3.2441e-05 
-5.54789e-05 
-2.05304e-05 
-1.99849e-05 
-5.42794e-05 
-4.6482e-05 
-1.51124e-05 
-1.76747e-05 
-1.84484e-05 
-2.14666e-05 
-2.48135e-05 
-4.14586e-05 
-3.01723e-05 
-1.77813e-05 
-6.06847e-06 
-4.15495e-07 
-1.08272e-06 
5.3699e-08 
7.39453e-07 
-2.71375e-07 
-7.46242e-07 
7.50552e-07 
-1.87899e-06 
-7.2153e-07 
-6.78454e-06 
1.19682e-06 
-6.85921e-06 
2.87182e-08 
5.81621e-07 
-1.16462e-06 
2.29881e-06 
-2.15255e-05 
-0.00100518 
-1.2761e-05 
-0.00277403 
-7.30998e-05 
-0.000221275 
-4.74808e-05 
-0.0038642 
-6.71026e-05 
-0.00303246 
-0.00016909 
-2.37367e-05 
-5.2485e-05 
-0.00246191 
-1.26402e-05 
-0.00816723 
-0.000117778 
-2.12813e-05 
-0.000134698 
-0.000109259 
-0.00118143 
-0.00595887 
2.92245e-06 
3.25145e-06 
3.10138e-06 
4.09389e-06 
2.54694e-06 
2.72749e-06 
-1.67419e-05 
7.03737e-07 
-1.01775e-05 
8.36054e-07 
-1.31234e-05 
4.51892e-06 
1.06522e-06 
6.26342e-07 
1.15605e-06 
4.10198e-06 
-1.43589e-05 
2.05597e-06 
-0.000287024 
1.0415e-06 
-0.000385533 
-0.00011424 
-0.0185734 
-9.85707e-07 
-0.0113571 
-9.70493e-05 
-0.000239124 
-0.000120708 
-8.04731e-05 
-0.00891529 
-4.93301e-05 
-1.12318e-05 
-0.0198731 
-0.000136142 
-7.30953e-05 
3.94847e-05 
-0.0227227 
-0.0221537 
5.58325e-07 
-2.08977e-06 
-8.118e-06 
-9.49619e-07 
8.89741e-07 
-1.14894e-06 
-1.89128e-06 
-1.35793e-06 
-1.1034e-05 
2.01814e-06 
-1.0402e-06 
-9.70142e-06 
1.90966e-06 
1.53155e-06 
4.74009e-06 
-1.49088e-05 
4.98943e-06 
-1.9075e-06 
-0.00687917 
-0.00557073 
-4.69538e-05 
-7.48896e-05 
-0.00789085 
-6.16132e-05 
-0.00587757 
-2.66625e-06 
-2.50081e-05 
-0.000240383 
-0.00548913 
9.64853e-06 
-3.12322e-05 
-8.55977e-05 
-0.000154903 
-0.010744 
1.7263e-05 
-1.04683e-05 
-1.83605e-06 
-0.0193579 
-4.67808e-05 
3.1948e-06 
-1.26403e-05 
1.03973e-06 
-6.18808e-07 
5.25854e-06 
1.80873e-06 
2.25561e-06 
9.23456e-07 
2.18981e-06 
-1.35614e-05 
2.56009e-06 
5.48354e-07 
-1.75369e-07 
9.47161e-08 
-1.65756e-05 
7.98708e-07 
-9.60601e-07 
-0.016471 
-0.0152674 
-6.71394e-05 
-4.44573e-05 
-0.0139892 
-0.000125188 
7.17422e-06 
-2.61075e-07 
-0.00673299 
2.79655e-06 
-0.0132461 