ITEM: TIMESTEP
5000000
ITEM: NUMBER OF ATOMS
896
ITEM: BOX BOUNDS pp pp ff
-1.7300000000000001e+01 1.6899999999999999e+01
-1.8300000000000001e+01 1.7800000000000001e+01
-5.0000000000000000e+01 5.0000000000000000e+01
ITEM: ATOMS q 
0 
0 
0 
0 
0 
0 
0 
0 
0 
0 
0 
0 
0 
0 
0 
0 
0 
0 
0 
0 
0 
0 
0 
0 
0 
0 
0 
0 
0 
0 
0 
0 
0 
0 
0 
0 
0 
0 
0 
0 
0 
0 
0 
0 
0 
0 
0 
0 
0 
0 
0 
0 
0 
0 
0 
0 
0 
0 
0 
0 
0 
0 
0 
0 
0 
0 
0 
0 
0 
0 
0 
0 
0 
0 
0 
0 
0 
0 
0 
0 
0 
0 
0 
0 
0 
0 
0 
0 
0 
0 
0 
0 
0 
0 
0 
0 
0 
0 
0 
0 
0 
0 
0 
0 
0 
0 
0 
0 
0 
0 
0 
0 
0 
0 
0 
0 
0 
0 
0 
0 
0 
0 
0 
0 
0 
0 
0 
0 
0 
0 
0 
0 
0 
0 
0 
0 
0 
0 
0 
0 
0 
0 
0 
0 
0 
0 
0 
0 
0 
0 
0 
0 
0 
0 
0 
0 
0 
0 
0 
0 
0 
0 
0 
0 
0 
0 
0 
0 
0 
0 
0 
0 
0 
0 
0 
0 
0 
0 
0 
0 
0 
0 
0 
0 
0 
0 
0 
0 
0 
0 
0 
0 
0 
0 
0 
0 
0 
0 
0 
0 
0 
0 
0 
0 
0 
0 
0 
0 
0 
0 
0 
0 
0 
0 
0 
0 
0 
0 
0 
0 
0 
0 
0 
0 
0 
0 
0 
0 
0 
0 
0 
0 
0 
0 
0 
0 
0 
0 
0 
0 
0 
0 
0 
0 
0 
0 
0 
0 
0 
0 
0 
0 
0 
0 
0 
0 
0 
0 
0 
0 
0 
0 
0 
0 
0 
0 
0 
0 
0 
0 
0 
0 
0 
0 
0 
0 
0 
0 
0 
0 
0 
0 
0 
0 
0 
0 
0 
0 
0 
0 
0 
0 
0 
0 
0 
0 
0 
0 
0 
0 
0 
0 
0 
0 
0 
0 
0 
0 
0 
0 
0 
0 
0 
0 
0 
0 
0 
0 
0 
0 
0 
0 
0 
0 
0 
0 
0 
0 
0 
0 
0 
0 
0 
0 
0 
0 
0 
0 
0 
0 
0 
0 
0 
0 
0 
0 
0 
0 
0 
0 
0 
0 
0 
0 
0 
0 
0 
0 
0 
0 
0 
0 
0 
0 
0 
0 
0 
0 
0 
0 
0 
0 
0 
0 
0 
0 
0 
0 
0 
0 
0 
0 
0 
0 
0 
0 
0 
0 
0 
0 
0 
0 
0 
0 
0 
0 
0 
0 
0 
0 
0 
0 
0 
0 
0 
0 
0 
0 
0 
0 
0 
0 
0 
0 
0 
0 
0 
0 
0 
0 
0 
0 
0 
0 
0 
0 
0 
0 
0 
0 
0 
0 
0 
0 
0 
0 
0 
0 
0 
0 
0 
0 
0 
0 
0 
0 
0 
0 
0 
0 
0 
0 
0 
0 
0 
0 
0 
0 
0 
0 
0 
0 
0 
0 
0 
0 
0 
0 
0 
0 
0 
0 
0 
0 
0 
0 
0 
0 
0 
0 
0 
0 
0 
0 
0 
0 
0 
0 
0 
0 
0 
0 
0 
0 
0 
0 
0 
0 
0 
0 
0 
0 
0 
0 
0 
0 
0 
0 
0 
0 
0 
0 
0 
0 
0 
0 
0 
0 
0 
0 
0 
0 
0 
0 
0 
0 
0 
0 
0 
0 
0 
0 
0 
0 
0 
0 
0 
0 
0 
0 
0 
0 
0 
0 
0 
0 
0 
0 
0 
0 
0 
0 
0 
0 
0 
0 
0 
0 
0 
0 
0 
0 
0 
0 
0 
0 
0 
0 
0 
0 
0 
0 
0 
0 
0 
0 
0 
0 
0 
0 
0 
0 
0 
0 
0 
0 
0 
0 
0 
0 
0 
0 
0 
0 
0 
0 
0 
0 
0 
0 
0 
0 
0 
0 
0 
0 
0 
0 
0 
0 
0 
0 
0 
0 
0 
0 
0 
0 
0 
0 
0 
0 
0 
0 
0 
0 
0 
0 
0 
0 
0 
0 
0 
0 
0 
0 
0 
0 
0 
0 
0 
0 
0 
0 
0 
0 
0 
0 
0 
0 
0 
0 
0 
0 
0 
0 
0 
0 
0 
0 
0 
0 
0 
0 
0 
0 
0 
0 
0 
0 
0 
0 
0 
0 
0 
0 
0 
0 
0 
0 
0 
0 
0 
0 
0 
0 
0 
0 
0 
0 
0 
0 
0 
0 
0 
0 
0 
0 
0 
0 
0 
0 
0 
0 
0 
0 
0 
0 
0 
0 
0 
0 
0 
0 
0 
0 
0 
0 
0 
0 
0 
0 
0 
0 
0 
0 
0 
0 
0 
0 
0 
0 
0 
0 
0 
0 
0 
0 
0 
0 
0 
0 
0 
0 
0 
0 
0 
0 
0 
0 
0 
0 
0 
0 
0 
0 
0 
0 
0 
0 
0 
0 
0 
0 
0 
0 
0 
0 
0 
0 
0 
0 
0 
0 
0 
0 
0 
0 
0 
0 
0 
0 
0 
0 
0 
0 
0 
0 
0 
0 
0 
0 
0 
0 
0 
0 
0 
0 
0 
0 
0 
0 
0 
0 
0 
0 
0 
0 
0 
0 
0 
0 
0 
0 
0 
0 
0 
0 
0 
0 
0 
0 
0 
0 
0 
0 
0 
0 
0 
0 
0 
0 
0 
0 
0 
0 
0 
0 
0 
0 
0 
0 
0 
0 
0 
0 
0 
0 
0 
0 
0 
0 
0 
0 
0 
0 
0 
0 
0 
0 
0 
0 
0 
0 
0 
0 
0 
0 
0 
0 
0 
0 
0 
0 
0 
0 
0 
0 
0 
0 
0 
0 
0 
0 
0 
0 
0 
0 
0 
0 
0 
0 
0 
0 
0 
0 
ITEM: TIMESTEP
5200000
ITEM: NUMBER OF ATOMS
896
ITEM: BOX BOUNDS pp pp ff
-1.7300000000000001e+01 1.6899999999999999e+01
-1.8300000000000001e+01 1.7800000000000001e+01
-5.0000000000000000e+01 5.0000000000000000e+01
ITEM: ATOMS q 
0.032158 
0.01306 
0.0315873 
0.0361946 
0.0316442 
0.0453126 
0.0339084 
0.0456336 
0.0517667 
0.0514351 
0.0477158 
0.023617 
0.0202137 
0.0727721 
0.005808 
0.009398 
0.0123911 
0.00297319 
-0.00300859 
0.0147152 
0.0114815 
0.0132811 
0.0497724 
0.0104463 
0.0413741 
0.00670078 
0.0228836 
0.0106105 
2.91341e-05 
0.00597533 
0.000202594 
5.6537e-05 
0.00296121 
3.3681e-05 
0.000274837 
0.000198546 
9.4838e-05 
0.000816491 
0.000415283 
0.00196874 
5.22679e-05 
0.00394979 
6.40604e-05 
9.51602e-05 
0.00022971 
4.52117e-05 
0.0133939 
-6.25717e-06 
-1.17922e-05 
-6.29386e-06 
-2.91609e-06 
-2.78701e-06 
-7.66756e-06 
-3.29618e-06 
-1.44062e-05 
-5.17411e-06 
-7.79876e-06 
-4.57564e-06 
-3.6835e-06 
-1.07508e-05 
-4.87698e-06 
-1.45311e-06 
-3.03665e-06 
-4.91752e-06 
0.00791959 
4.23951e-05 
6.01806e-05 
0.000186392 
4.79985e-06 
0.0218738 
8.95752e-05 
-1.26566e-05 
0.0102965 
7.64751e-05 
0.0101856 
0.000157074 
0.0165575 
0.000126903 
0.000303703 
0.000168686 
0.000143835 
0.00681429 
5.31476e-05 
0.00854961 
5.86113e-05 
-1.30694e-06 
-4.38659e-06 
-4.31783e-06 
-5.19389e-06 
-2.78026e-05 
-8.48568e-06 
-2.18087e-05 
-4.33836e-06 
-3.56187e-06 
-2.32673e-06 
-5.25745e-06 
-2.20363e-05 
-4.96291e-06 
-6.19139e-06 
-3.5605e-06 
-4.29178e-06 
-4.60136e-06 
0.0148003 
0.0128132 
-3.00373e-05 
5.04848e-05 
6.03097e-05 
0.000282682 
2.023e-05 
2.39284e-05 
6.63807e-05 
0.000127354 
0.00594868 
-1.07391e-05 
-0.00738127 
-9.56753e-05 
0.00141418 
-1.0269e-05 
1.16336e-05 
1.63681e-06 
0.00241139 
-1.55618e-05 
0.00010625 
0.00421682 
0.00512255 
-2.1543e-06 
-1.11224e-06 
-1.88381e-05 
-2.94583e-06 
-1.40162e-05 
-4.47166e-07 
-2.69849e-06 
-2.18783e-06 
-1.88384e-05 
-2.55973e-06 
-5.67533e-07 
-1.44675e-06 
-1.00389e-06 
-2.4619e-05 
-6.45864e-07 
-1.31539e-06 
-2.80926e-06 
-2.78199e-05 
-1.07561e-08 
5.63673e-07 
-2.76208e-05 
-5.23722e-07 
1.72945e-07 
-7.77696e-07 
9.85317e-05 
0.000132245 
0.000194435 
6.28375e-05 
0.0337992 
9.36194e-05 
0.000250066 
0.026315 
1.88025e-05 
1.49592e-05 
0.0120582 
-1.54525e-05 
0.00803867 
-5.05605e-05 
4.52252e-05 
-8.61213e-05 
0.00666361 
1.97962e-05 
-0.00280539 
-0.000110356 
0.00387188 
0.00711439 
-2.23409e-06 
-6.25816e-06 
-2.11751e-06 
-5.44441e-06 
-5.26269e-06 
-2.67189e-05 
-6.77619e-06 
-1.72429e-06 
-2.34844e-06 
-1.93906e-06 
-2.83258e-05 
-2.02951e-06 
-2.60538e-05 
-9.0882e-05 
-1.5215e-05 
-2.1224e-05 
-1.56209e-05 
-2.92532e-05 
-7.92571e-05 
-0.00010493 
-9.53494e-05 
-9.7142e-05 
-0.00010324 
-3.25389e-05 
-9.43117e-05 
-4.44156e-05 
-8.94677e-05 
-3.11466e-05 
-9.89783e-05 
-0.000100079 
-5.11735e-05 
-6.6789e-05 
-5.94064e-05 
-4.49889e-05 
-5.23413e-05 
-6.55107e-05 
-9.25451e-05 
-3.62721e-05 
-8.44587e-05 
-0.000104274 
-7.59164e-05 
-3.6557e-05 
-4.88031e-05 
-5.05083e-05 
-4.16517e-05 
-4.37199e-05 
-6.78827e-05 
-9.30735e-05 
-5.10648e-05 
-5.08315e-05 
-5.48518e-05 
-5.81593e-05 
-7.50378e-05 
0.0512941 
0.0340905 
0.0330787 
0.0477214 
0.0144096 
0.039139 
0.0188935 
0.0104745 
0.043873 
0.0199402 
0.0232391 
0.0179892 
0.0237853 
0.0521397 
0.0690464 
0.0259193 
0.0214386 
0.0348058 
0.0250727 
0.0352318 
0.0410084 
0.0442569 
0.0584314 
0.0161216 
0.0278432 
0.00173834 
0.0355227 
0.0278613 
0.0105469 
0.0101624 
5.96367e-05 
9.07393e-05 
1.0162e-05 
0.0189312 
0.000332426 
7.80553e-05 
5.54314e-05 
2.85587e-06 
0.00614338 
0.0154885 
0.000101502 
7.5828e-05 
7.75239e-06 
0.00464665 
6.37469e-05 
0.000247522 
2.83725e-05 
-1.28989e-05 
0.00875994 
0.00333497 
0.0157312 
-2.80715e-06 
-8.22166e-06 
-3.68344e-06 
-7.09761e-06 
-1.65936e-05 
-3.82881e-06 
-2.71508e-05 
-4.7572e-06 
-7.92592e-07 
-2.9974e-06 
-3.74946e-06 
-2.63165e-06 
-1.92523e-06 
-1.5879e-05 
-1.61319e-06 
-3.74127e-06 
-2.18133e-05 
-2.47273e-06 
-3.08536e-05 
-2.73386e-05 
-4.73119e-05 
-4.89879e-05 
0.0197711 
-6.07055e-05 
-9.84633e-05 
2.30927e-05 
0.00013795 
6.45968e-05 
1.20087e-06 
0.0138261 
-2.6514e-05 
-6.70009e-05 
-5.58942e-05 
0.0167193 
-6.74547e-05 
0.014492 
0.0165295 
-2.23398e-06 
-2.47478e-06 
-2.55211e-06 
-2.48606e-05 
-1.52847e-06 
-3.54983e-06 
-4.46173e-06 
-3.12318e-06 
-3.14696e-05 
-4.89646e-06 
-2.3761e-06 
-2.90213e-06 
-2.22643e-05 
-3.86967e-06 
-1.01987e-05 
-1.68873e-06 
-2.83105e-06 
0.000131971 
2.0943e-05 
0.000224512 
0.000175127 
1.55744e-05 
0.00206716 
7.81673e-05 
7.32271e-06 
0.0178482 
0.00257146 
2.63446e-05 
0.00158299 
7.31469e-05 
0.000506149 
0.000215035 
0.00583351 
6.71774e-05 
0.0144917 
4.48174e-05 
0.000217876 
-1.98867e-06 
-1.01271e-06 
-2.16773e-06 
-1.25894e-05 
-6.00242e-06 
-1.16811e-05 
-2.88363e-06 
-4.3728e-06 
-3.93173e-06 
-2.11918e-06 
-3.27725e-06 
-1.18227e-05 
-7.023e-06 
-3.48295e-06 
1.92603e-07 
-2.12941e-06 
-2.92588e-06 
0.0020306 
0.0114985 
0.0140459 
0.000218581 
0.000101034 
-1.82762e-05 
0.00019402 
0.0104766 
9.38885e-05 
0.000119162 
0.037362 
3.5932e-05 
0.000132152 
0.000249609 
-4.56279e-05 
0.0158704 
4.56458e-06 
0.00497861 
7.78511e-05 
0.000249612 
5.73907e-05 
-5.19315e-06 
-1.62506e-05 
-3.88229e-06 
-5.545e-06 
-2.09714e-05 
-5.51077e-06 
-3.15062e-06 
-3.3945e-06 
-2.342e-05 
-7.33757e-06 
-5.29185e-06 
-9.70534e-07 
-3.11368e-06 
-4.08481e-06 
-5.07101e-06 
-3.16365e-06 
-3.05603e-05 
-4.68975e-06 
0.00918916 
-8.80661e-05 
-4.21349e-05 
-6.5295e-05 
-4.04924e-05 
-0.000124825 
-4.10481e-05 
-0.000110637 
-4.25196e-05 
-4.85078e-05 
-0.00011399 
-3.5046e-05 
-6.05828e-05 
-8.13955e-05 
-3.35515e-05 
-0.00010729 
-4.43289e-05 
-3.03215e-05 
-9.33833e-05 
-4.95451e-05 
-4.04409e-05 
-2.85297e-05 
-1.97215e-05 
-7.38712e-05 
-9.56018e-05 
-3.42501e-05 
-2.19285e-05 
-9.82167e-05 
-2.81693e-05 
-0.000115778 
-2.09107e-05 
-5.81674e-05 
-9.87826e-05 
-5.65425e-05 
-3.84985e-05 
-9.94989e-05 
-3.40969e-05 
-7.9127e-05 
-4.1542e-05 
-3.83946e-05 
-4.11718e-05 
-9.29793e-05 
-3.08204e-05 
0.0348506 
0.0151717 
0.00335087 
0.0179273 
0.0108381 
0.0156595 
0.0102754 
0.00813762 
0.0213698 
0.0119522 
0.0215065 
0.0107938 
0.0517332 
0.0122339 
0.0348309 
0.0388633 
0.0181624 
0.0300965 
0.0294826 
0.0164329 
0.00364659 
0.00948444 
0.0167499 
0.00825913 
0.0213384 
0.0141476 
0.0137169 
0.00110656 
0.00356421 
0.0134384 
-0.00595762 
0.000123347 
5.05724e-05 
5.23254e-05 
0.00955527 
9.87497e-05 
8.52027e-05 
9.60229e-06 
3.15825e-05 
0.00608033 
8.90673e-05 
2.86165e-05 
1.72788e-05 
0.00363376 
5.87846e-05 
0.00164393 
0.000102883 
1.95669e-05 
1.87208e-05 
0.00294373 
-4.0465e-06 
-2.52364e-05 
-3.65267e-06 
-4.16167e-06 
-3.58132e-06 
-2.06579e-05 
-1.70163e-06 
-2.30612e-06 
-2.60002e-06 
-2.58253e-06 
-3.40061e-06 
-2.87978e-06 
-2.85072e-06 
-1.93588e-06 
-2.02732e-06 
-1.30571e-05 
-1.6938e-06 
0.00284264 
-2.23916e-05 
0.000209991 
4.68914e-05 
1.60545e-05 
0.000110009 
0.00343533 
0.000339534 
0.000261092 
4.34772e-05 
0.000190316 
0.0028491 
2.33205e-05 
3.84427e-05 
5.99011e-05 
0.000326435 
0.000756441 
-1.40031e-05 
-2.99072e-06 
-9.41012e-07 
-2.89948e-06 
-7.44389e-06 
-2.45558e-06 
-3.45638e-06 
-7.42565e-06 
-5.05811e-06 
-4.96208e-07 
-3.22666e-06 
-3.20319e-06 
-7.69376e-06 
-3.25532e-06 
-3.47319e-06 
-4.48819e-06 
0.00518497 
0.00327183 
-1.56137e-05 
4.47707e-05 
2.69603e-05 
1.62423e-06 
0.00460433 
5.64109e-05 
3.10706e-05 
2.57087e-05 
8.03807e-05 
0.00415972 
0.00815344 
-4.1696e-05 
-5.19983e-05 
-1.85384e-05 
0.00434495 
-2.81716e-06 
0.00313201 
1.17196e-05 
-3.08393e-06 
8.28074e-05 
0.0113796 
0.00817809 
-1.99842e-06 
-1.59071e-06 
-8.69261e-07 
-2.84532e-05 
-2.74665e-06 
-2.88882e-06 
-2.66238e-06 
-1.76191e-05 
-2.1912e-06 
-1.47008e-06 
1.80625e-07 
-1.5542e-06 
-2.85645e-05 
-1.40548e-06 
-2.65382e-06 
-2.83129e-06 
-2.03822e-05 
-2.99769e-06 
-2.21913e-06 
-1.99518e-05 
-6.79817e-07 
-8.19871e-07 
-2.31912e-05 
9.26055e-08 
-6.05301e-07 
0.000103672 
1.9314e-05 
0.00195516 
9.80566e-06 
8.53552e-05 
2.94259e-05 
3.54381e-05 
0.00246185 
1.78414e-05 
7.21672e-05 
0.00158166 
1.32757e-05 
0.00186177 
8.36839e-08 
-1.53419e-06 
-3.21769e-05 
-0.000682517 
-7.64785e-06 
-0.00297288 
-6.96256e-05 
0.000645801 
-0.00440149 
-3.07255e-06 
-2.42034e-06 
-2.12581e-06 
-2.34801e-06 
-1.58249e-05 
-9.46827e-07 
-2.82244e-06 
-1.55231e-06 
-2.22695e-06 
-1.22374e-06 
-6.14914e-05 
-9.66443e-05 
-2.9592e-05 
-0.000107268 
-4.53207e-05 
-2.85107e-05 
-9.23542e-05 
-3.25789e-05 
-9.88848e-05 
-9.16882e-05 
-0.000123683 
-0.000106412 
-1.96338e-05 
-1.87417e-05 
-9.84106e-05 
-3.87519e-05 
-3.04401e-05 
-7.66027e-05 
-1.79767e-05 
-2.61757e-05 
-0.00010431 
-0.000106195 
-4.2574e-05 
-4.6722e-05 
-3.09855e-05 
-6.88898e-05 
-6.0224e-05 
-2.88735e-05 
-7.35097e-05 
-4.81538e-05 
-8.71525e-05 
-5.93798e-05 
-0.000104017 
-7.38904e-05 
-6.02535e-05 
-8.69436e-05 
-3.39247e-05 
-5.61114e-05 
-3.43219e-05 
-8.85408e-05 
-5.92511e-05 
-4.31909e-05 
-4.74731e-05 
0.0273545 
0.00905796 
0.0150321 
0.00511276 
0.013692 
0.0232308 
0.00251823 
0.0141386 
0.0361154 
0.0312373 
0.0319567 
0.0452306 
0.00907377 
0.0348059 
0.0398799 
0.0534763 
0.0120318 
0.0244678 
0.029673 
0.0412162 
0.00303392 
0.014518 
0.0062674 
0.034976 
0.00714151 
0.0435381 
0.00394851 
0.037418 
0.0128994 
0.0221447 
-0.000126175 
0.0326239 
-7.26144e-05 
-6.84578e-05 
0.014165 
-5.63919e-05 
3.00377e-05 
-7.80603e-06 
3.31642e-05 
0.0103003 
0.0193053 
-5.23493e-06 
-0.00012849 
-6.56003e-05 
0.00344568 
-4.07022e-05 
0.00568767 
-2.07694e-05 
2.59561e-05 
-2.39786e-05 
0.000864507 
0.00859417 
-3.69423e-06 
-1.71423e-06 
-3.35425e-06 
-2.96861e-05 
-1.41366e-06 
-3.78747e-06 
-2.43739e-06 
-2.02799e-05 
-2.90424e-06 
-3.70096e-06 
-2.80899e-06 
-1.82928e-06 
-2.57832e-05 
-4.64331e-06 
-2.80552e-06 
-2.86903e-06 
-1.8069e-05 
-2.27016e-06 
-5.3302e-05 
1.83607e-05 
-0.000128314 
-3.07376e-05 
0.00156119 
-2.48659e-05 
-4.80874e-05 
0.00265249 
0.000165294 
1.12263e-05 
0.0173738 
0.000178245 
0.000138033 
1.31892e-05 
0.0151676 
1.95819e-06 
0.000402027 
0.000666455 
0.00726428 
-3.32337e-06 
-1.09686e-06 
-1.85882e-05 
-3.88558e-06 
-1.57048e-05 
-2.97813e-06 
-1.82e-06 
-3.1835e-06 
-1.59056e-05 
-6.7991e-06 
-8.81911e-06 
-2.94586e-06 
-5.87171e-06 
-1.25715e-05 
-8.68994e-07 
-4.48482e-06 
-3.87387e-06 
2.14323e-07 
-2.51112e-06 
-9.63025e-06 
2.49292e-05 
9.27577e-05 
6.31968e-05 
-2.25506e-05 
0.0173264 
9.72804e-05 
5.02998e-05 
0.0177543 
0.000163704 
0.00564622 
3.67617e-05 
0.0075075 
0.000145821 
0.00646725 
0.00011966 
1.96077e-05 
5.173e-05 
0.00155703 
0.000102393 
0.000526756 
-4.18877e-06 
-1.78524e-06 
-3.06533e-06 
-2.57733e-05 
-2.60342e-06 
-7.18408e-06 
-4.06812e-06 
-1.14245e-05 
-1.60884e-05 
-5.23718e-06 
-4.92614e-06 
-7.119e-06 
-2.78538e-06 
-3.44277e-06 
-2.03474e-06 
-3.01889e-06 
-3.55293e-06 
0.0176864 
0.00470231 
0.00276937 
-2.70464e-06 
0.000307996 
3.37987e-05 
2.58273e-05 
-6.13184e-06 
9.09439e-05 
0.00309302 
2.46776e-05 
0.000225071 
0.0117315 
4.32774e-05 
4.36747e-05 
0.0129718 
7.58873e-05 
0.000403866 
1.23165e-05 
9.27559e-06 
0.00085313 
6.03988e-05 
-2.38463e-06 
-2.23716e-06 
-2.38377e-06 
-1.28979e-05 
-1.9112e-06 
-3.76072e-06 
2.44615e-07 
-2.43642e-06 
-3.01887e-06 
-1.19515e-05 
-3.20123e-06 
-3.48919e-06 
-2.19468e-06 
-2.11843e-06 
-2.38014e-06 
-2.74172e-05 
-6.52265e-05 
-6.75973e-05 
-3.79443e-05 
-4.18013e-05 
-8.24009e-05 
-4.34751e-05 
-0.000105541 
-7.1554e-05 
-5.4551e-05 
-8.9996e-05 
-9.79722e-05 
-2.30758e-05 
-0.000118894 
-0.00010407 
-2.13951e-05 
-9.98129e-05 
-9.88182e-05 
-3.32068e-05 
-9.32376e-05 
-9.39154e-05 
-2.70441e-05 
-0.000116237 
-5.34265e-05 
-3.90948e-05 
-6.00494e-05 
-2.88041e-05 
-2.91882e-05 
-9.80905e-05 
-4.9857e-05 
-4.39978e-05 
-9.8694e-05 
-4.4838e-05 
-0.000114577 
-2.98688e-05 
-9.83366e-05 
-0.00012243 
-4.15562e-05 
-6.89143e-05 
-2.16365e-05 
-3.74311e-05 
ITEM: TIMESTEP
5400000
ITEM: NUMBER OF ATOMS
896
ITEM: BOX BOUNDS pp pp ff
-1.7300000000000001e+01 1.6899999999999999e+01
-1.8300000000000001e+01 1.7800000000000001e+01
-5.0000000000000000e+01 5.0000000000000000e+01
ITEM: ATOMS q 
0.0140669 
0.0096138 
0.0264752 
0.0292237 
0.0129969 
0.00402859 
0.0504459 
0.019767 
0.0418666 
0.023882 
0.0202637 
0.0108717 
0.0149937 
0.0158539 
0.0104909 
0.00448067 
0.0128633 
0.0106136 
0.00916553 
0.037284 
0.00805233 
0.0101174 
0.0446875 
0.0172828 
0.0290628 
0.0136472 
0.0176819 
0.0213004 
7.13339e-05 
0.00801557 
0.000173613 
2.54904e-05 
0.00253898 
1.65711e-05 
9.54836e-05 
7.26483e-05 
6.47839e-05 
0.000444066 
0.000295163 
0.00141867 
3.41437e-05 
0.00360088 
2.91128e-05 
2.38005e-05 
7.40438e-05 
2.07282e-05 
0.00179076 
-2.71656e-06 
-4.69835e-06 
-1.7817e-06 
-1.14558e-08 
8.87746e-08 
-2.82568e-06 
7.92118e-08 
-5.16969e-06 
-1.36324e-06 
-4.29177e-06 
-1.54306e-06 
-1.00523e-06 
-4.25527e-06 
-1.57815e-06 
-3.31935e-07 
-3.56524e-07 
-1.65809e-06 
0.00282749 
3.39117e-05 
9.27374e-05 
0.000112378 
-2.61521e-05 
0.00963013 
1.02237e-05 
-3.28655e-05 
0.00437404 
0.000100313 
0.00508905 
5.78055e-05 
0.00777224 
4.06473e-05 
0.000132457 
6.89161e-05 
3.49884e-05 
0.00479556 
2.42674e-05 
0.0032564 
1.30844e-05 
-5.06895e-07 
1.32509e-07 
-2.49171e-06 
-2.18513e-06 
-9.37368e-06 
-2.45345e-06 
-7.5886e-06 
-1.15159e-06 
-5.4056e-07 
-1.25367e-06 
-2.9447e-06 
-6.70171e-06 
-2.83678e-06 
-1.0658e-06 
-1.77068e-06 
-1.27348e-06 
-5.35911e-07 
0.00616103 
0.00189791 
-9.7751e-06 
4.31711e-05 
0.000210414 
0.000180363 
6.6269e-06 
2.71405e-05 
0.000263382 
0.000150063 
0.0139466 
2.55667e-05 
0.00572725 
7.50203e-05 
0.00176719 
4.30378e-05 
4.27321e-05 
1.95296e-05 
0.0035377 
-3.20069e-06 
0.000241162 
0.00572599 
0.00379243 
-6.8409e-07 
-1.77792e-06 
-5.1753e-06 
-2.50289e-06 
-4.15296e-06 
-9.78978e-07 
-3.34841e-06 
-1.35814e-06 
-5.18766e-06 
-2.88608e-06 
-1.84755e-06 
-2.30301e-06 
-1.05771e-06 
-7.2264e-06 
-7.8642e-07 
-2.05912e-06 
-2.22276e-06 
-7.87793e-06 
-1.70741e-06 
-6.21734e-07 
-8.36311e-06 
-1.04806e-06 
-3.83165e-06 
-1.38414e-06 
5.02841e-05 
0.00010753 
0.000123522 
7.84056e-06 
0.00641484 
4.28541e-05 
7.95704e-06 
0.00874736 
2.32815e-05 
3.93852e-06 
0.00555578 
-1.56003e-05 
0.00549233 
-4.62847e-05 
6.05378e-05 
-3.1545e-05 
0.0178943 
4.57108e-05 
0.0102162 
-3.25747e-05 
0.0114997 
0.00405032 
-3.38945e-06 
-1.94951e-06 
-7.06118e-07 
-1.64797e-06 
-2.70421e-06 
-7.82265e-06 
-4.74095e-07 
-3.29914e-06 
-2.97836e-06 
-1.05781e-06 
-8.5584e-06 
-1.36405e-06 
-8.05135e-06 
-2.88444e-05 
-6.0127e-06 
-8.38563e-06 
-5.82615e-06 
-8.75436e-06 
-2.4472e-05 
-3.27566e-05 
-2.95599e-05 
-2.98753e-05 
-3.2825e-05 
-3.15939e-05 
-2.1587e-05 
-9.66989e-06 
-2.78848e-05 
-1.39378e-05 
-3.12167e-05 
-1.04887e-05 
-2.97019e-05 
-1.84575e-05 
-1.6143e-05 
-1.15557e-05 
-3.38047e-05 
-1.40909e-05 
-2.96677e-05 
-1.09058e-05 
-2.09197e-05 
-1.61128e-05 
-2.70873e-05 
-2.43744e-05 
-1.59877e-05 
-1.37539e-05 
-1.26385e-05 
-1.7049e-05 
-1.6176e-05 
-2.36715e-05 
-1.52449e-05 
-2.98639e-05 
-1.5787e-05 
-1.84243e-05 
-2.16232e-05 
0.025111 
0.0172439 
0.0581123 
0.0324435 
0.00557963 
0.0275859 
0.0246596 
0.0262721 
0.0186806 
0.0107029 
0.0353337 
-0.000212834 
0.00899842 
0.030165 
0.0216043 
0.0459851 
0.0407946 
0.0294749 
0.0144021 
0.0020522 
0.0270041 
0.0047724 
0.0301927 
0.0444858 
0.0278512 
0.0115005 
0.0158649 
0.00113439 
0.0119574 
0.0126147 
7.62339e-05 
3.03616e-05 
-5.21538e-06 
0.00725604 
0.000114496 
2.81307e-05 
-9.70237e-06 
1.6342e-05 
0.00508224 
0.00998989 
0.000132384 
6.61711e-05 
2.47066e-05 
0.00894282 
5.81418e-05 
0.000263682 
5.81613e-05 
-2.90582e-05 
-6.94028e-05 
0.00557932 
0.00634938 
-1.34803e-06 
-3.88359e-06 
-2.76871e-06 
-4.34883e-06 
-4.44065e-06 
-3.10924e-06 
-7.28948e-06 
-2.0281e-06 
-1.25981e-06 
-2.40325e-06 
-3.60325e-06 
-2.29477e-06 
-3.24817e-06 
-4.68446e-06 
-2.13269e-06 
-3.4881e-07 
-6.5719e-06 
-6.15236e-07 
-2.89095e-05 
-1.43319e-05 
0.000130529 
6.38062e-06 
0.041003 
4.02223e-05 
-8.04636e-05 
2.67965e-05 
5.63994e-05 
-4.30686e-05 
-1.92226e-05 
0.0142668 
-2.82174e-05 
-8.63578e-05 
-6.65036e-05 
0.0140269 
-1.20413e-05 
0.00648478 
0.0103527 
-2.66081e-06 
-5.11562e-06 
-9.84534e-07 
-7.2962e-06 
-1.20551e-06 
-4.67663e-06 
-2.48714e-06 
-2.6089e-06 
-9.60284e-06 
-5.36876e-07 
-7.06851e-09 
-1.81993e-06 
-7.8032e-06 
-2.97803e-06 
-5.44964e-06 
-4.35802e-07 
-2.21671e-06 
0.000184357 
2.87824e-05 
0.000213983 
8.52271e-05 
3.66343e-05 
0.00186737 
7.04767e-05 
5.13844e-06 
0.0184564 
0.00404308 
4.82922e-05 
0.00189711 
3.02604e-05 
0.000211364 
5.8103e-05 
0.00657031 
7.3051e-05 
0.00309318 
5.21967e-05 
0.000184883 
-1.68829e-07 
-1.60591e-07 
-1.95071e-06 
-4.46494e-06 
-2.21187e-06 
-4.50613e-06 
-2.11732e-06 
-2.38435e-06 
-4.24574e-06 
3.76676e-07 
-1.43691e-06 
-5.26163e-06 
-2.29912e-07 
2.44679e-07 
-6.23393e-07 
6.12498e-07 
-1.36293e-06 
0.00135177 
0.00249449 
0.00913641 
0.000176695 
7.49704e-06 
-1.86245e-05 
0.000247332 
0.0144836 
1.09913e-05 
-4.5992e-06 
0.0202526 
-8.61966e-06 
0.000166611 
0.000466585 
-2.85063e-05 
0.00122268 
-2.34629e-06 
0.000202776 
-4.95544e-05 
1.53483e-06 
-1.58444e-05 
-4.56905e-06 
-4.7634e-06 
-2.70367e-06 
-5.28614e-06 
-6.93665e-06 
-4.76954e-07 
8.49217e-07 
-3.26848e-06 
-7.00985e-06 
-8.65505e-07 
-3.30572e-06 
-2.74608e-06 
-2.66986e-06 
-6.20937e-07 
-2.39849e-06 
-2.61033e-06 
-9.99348e-06 
-1.88121e-06 
0.00028517 
-2.82124e-05 
-1.29818e-05 
-2.007e-05 
-1.17925e-05 
-4.01147e-05 
-1.23329e-05 
-3.60155e-05 
-1.28914e-05 
-1.52273e-05 
-3.68579e-05 
-1.2565e-05 
-1.46106e-05 
-9.81731e-06 
-2.96155e-05 
-9.03697e-06 
-1.37442e-05 
-2.64989e-05 
-1.87209e-05 
-9.88479e-06 
-8.08161e-06 
-3.43284e-05 
-3.03539e-05 
-6.04366e-06 
-7.97001e-06 
-3.14229e-05 
-3.04896e-05 
-1.91663e-05 
-2.26034e-05 
-3.62384e-05 
-7.4532e-06 
-1.06583e-05 
-9.92731e-06 
-2.82565e-05 
-1.23194e-05 
-1.16272e-05 
-1.07358e-05 
-2.43451e-05 
-1.31989e-05 
-9.99862e-06 
-3.15351e-05 
-1.73137e-05 
-1.3258e-05 
0.0423954 
0.0181748 
0.00340572 
0.00253215 
0.00564233 
0.00563549 
0.00219367 
0.00320643 
0.0247895 
0.0327422 
0.0105825 
0.00412183 
0.0364033 
0.00260006 
0.0168839 
0.0103455 
0.0084485 
0.0154351 
0.0231174 
0.00781089 
0.0371101 
0.0110797 
0.00463802 
0.00730412 
0.00369416 
0.0168245 
0.0157882 
0.0190857 
0.0351364 
0.0444137 
0.0361388 
0.000135468 
5.79479e-05 
9.46207e-05 
0.0127855 
9.82018e-05 
0.000184063 
2.6444e-05 
7.63695e-05 
0.00478711 
1.12889e-05 
1.84356e-06 
5.60313e-06 
0.000506832 
1.43803e-05 
0.000836442 
4.54004e-05 
4.45218e-06 
1.0193e-05 
0.00133593 
-1.84223e-06 
-7.95974e-06 
-1.27102e-06 
-4.17747e-06 
-2.02629e-06 
-6.08817e-06 
7.90143e-07 
-1.4302e-06 
-2.93202e-07 
-1.38712e-06 
-1.57206e-06 
-2.08163e-06 
-5.62183e-07 
-3.25173e-07 
-1.09681e-06 
-3.77758e-06 
-1.48215e-06 
0.00117761 
-6.89688e-06 
0.000153088 
6.89799e-05 
1.55826e-07 
0.000396723 
0.0148025 
0.000443767 
0.000821113 
1.90006e-05 
9.4509e-05 
0.00197084 
1.01986e-05 
2.49967e-05 
5.9158e-05 
0.000188612 
0.000304323 
-7.26159e-06 
-1.55721e-06 
-2.42714e-06 
-8.39286e-07 
-1.57974e-05 
-2.94201e-06 
-3.99509e-06 
-2.64048e-06 
-4.27715e-06 
-9.68645e-07 
-2.2893e-06 
-5.72211e-07 
-2.77781e-06 
-2.05398e-06 
-9.34885e-07 
-6.82983e-07 
0.00212469 
0.00293187 
-4.64278e-06 
3.16241e-05 
2.93266e-05 
-9.9082e-06 
0.00467925 
3.75726e-05 
1.78603e-05 
1.70925e-05 
4.37657e-05 
0.00210437 
0.0246314 
6.70284e-05 
-6.83464e-06 
3.86515e-05 
0.00637728 
-6.08522e-05 
0.00123948 
7.09442e-06 
-6.26829e-07 
9.57962e-05 
0.00314453 
0.00317691 
-6.12333e-07 
-2.79791e-06 
-1.03137e-06 
-9.40506e-06 
-2.32396e-06 
-3.79707e-07 
-9.54958e-07 
-5.50607e-06 
-8.80224e-07 
-1.13543e-07 
-9.82733e-07 
-1.15647e-06 
-8.56909e-06 
-2.13004e-07 
-1.5748e-06 
-1.34332e-06 
-6.04935e-06 
-1.27597e-06 
-3.81622e-06 
-6.17125e-06 
-2.29264e-06 
-1.78856e-06 
-7.09609e-06 
-1.32429e-06 
-2.82064e-06 
0.000126676 
1.11236e-05 
0.00162167 
2.16926e-05 
7.53942e-05 
0.000135048 
2.77528e-05 
0.00407521 
1.48018e-05 
0.00021202 
0.00360966 
1.6105e-05 
0.00711292 
0.000106416 
0.000129257 
0.000190046 
0.00164171 
1.90347e-05 
0.00329471 
4.26862e-05 
0.0148441 
0.00679377 
-2.11573e-06 
-2.53104e-06 
1.32998e-07 
-2.17524e-06 
-4.04859e-06 
-3.53755e-06 
-9.37587e-07 
-9.53418e-07 
-2.07237e-06 
-7.142e-07 
-1.91068e-05 
-3.06573e-05 
-9.30429e-06 
-3.44043e-05 
-1.44915e-05 
-9.62097e-06 
-2.96573e-05 
-1.00479e-05 
-3.10947e-05 
-2.95505e-05 
-5.61433e-06 
-5.6372e-06 
-3.19091e-05 
-3.87389e-05 
-3.40932e-05 
-9.63689e-06 
-2.42127e-05 
-3.27788e-05 
-7.83852e-06 
-5.8513e-06 
-3.39537e-05 
-1.29798e-05 
-9.74311e-06 
-1.31334e-05 
-2.34115e-05 
-1.88642e-05 
-1.5096e-05 
-1.88933e-05 
-1.49972e-05 
-9.12315e-06 
-2.74302e-05 
-2.20444e-05 
-3.35721e-05 
-1.76571e-05 
-1.38175e-05 
-2.37973e-05 
-1.56367e-05 
-1.92299e-05 
-2.76151e-05 
-1.07794e-05 
-2.85748e-05 
-1.91955e-05 
-1.10835e-05 
0.0179057 
0.0300383 
0.0369624 
0.0455532 
0.0253014 
0.0277747 
0.0402141 
0.0477788 
0.0170065 
0.0115903 
0.0223472 
0.0129814 
0.0127228 
0.00319055 
0.0415529 
0.0207786 
0.00835234 
0.0324461 
0.0467503 
0.0328387 
0.0158605 
0.031977 
0.0304747 
0.018608 
0.0236757 
0.0138482 
0.0128539 
0.0336594 
0.0529607 
0.0296578 
-0.00012862 
0.00997885 
-4.1326e-05 
-0.000102309 
0.0134947 
7.7579e-06 
-2.73381e-05 
-9.06546e-05 
5.00092e-05 
0.0136625 
0.0280816 
-1.45883e-05 
4.52151e-05 
-1.38353e-05 
0.0142894 
-2.50906e-05 
0.0162779 
0.0001936 
0.000164896 
3.30417e-05 
0.01791 
0.00482043 
-2.78334e-06 
-1.80952e-06 
-1.2601e-06 
-8.63788e-06 
-2.28107e-06 
-2.89992e-06 
-5.9052e-06 
-6.45623e-06 
-1.67828e-06 
-6.51485e-06 
-2.98531e-06 
-2.58871e-06 
-7.3844e-06 
-3.36362e-06 
-5.91104e-06 
1.09589e-06 
-5.82813e-06 
-2.06618e-06 
2.09878e-05 
7.95627e-05 
2.85806e-05 
6.32353e-05 
0.0233821 
-5.36675e-05 
0.000101781 
0.00571725 
6.71734e-05 
4.04712e-05 
0.0089068 
0.000368924 
-2.82466e-05 
-4.19924e-05 
-0.00097819 
-1.87866e-05 
6.71946e-05 
0.000679218 
0.00306765 
-2.41218e-06 
-3.91114e-06 
-6.14519e-06 
-3.33219e-06 
-5.78516e-06 
-3.74496e-07 
-1.80277e-06 
-2.61317e-06 
-5.56644e-06 
-8.08943e-07 
-3.30638e-06 
-2.26143e-06 
-1.71692e-06 
-5.30022e-06 
1.44043e-06 
-8.83902e-08 
-6.78669e-07 
2.34403e-07 
-1.94696e-06 
-2.72561e-06 
0.000103722 
6.31862e-05 
5.35863e-05 
4.74389e-05 
0.0192165 
0.000112501 
2.82118e-05 
0.00741692 
0.000128162 
0.00316867 
1.39374e-05 
0.00394392 
0.000163674 
0.00823105 
0.000241879 
6.43167e-05 
7.44039e-05 
0.0150283 
0.00012597 
0.000379273 
-5.198e-06 
-2.2398e-06 
-1.20468e-06 
-7.89573e-06 
-2.38043e-06 
-2.29267e-06 
-1.7959e-06 
-4.81193e-06 
-6.4619e-06 
-1.37993e-06 
4.48684e-07 
-3.6257e-06 
-2.13464e-06 
-2.16208e-06 
-1.29286e-06 
-2.89401e-06 
1.13659e-07 
0.0205768 
0.0119612 
0.0013897 
-2.13561e-06 
6.78776e-05 
1.77202e-05 
9.41836e-05 
1.55221e-05 
6.40524e-05 
0.00638577 
7.36935e-05 
0.000927351 
0.00357464 
2.50832e-05 
3.8027e-05 
0.00175842 
0.000136057 
0.000290945 
-1.03094e-05 
1.74853e-05 
0.00222561 
0.000106976 
-2.31871e-06 
-6.56601e-07 
2.18558e-06 
-5.79283e-06 
-1.30623e-06 
-1.25669e-06 
-1.92719e-06 
-1.15936e-06 
-1.4334e-06 
-5.35007e-06 
-1.96777e-06 
-1.53398e-06 
-1.13898e-06 
-1.66354e-06 
-1.34022e-06 
-8.81056e-06 
-2.11204e-05 
-2.1898e-05 
-1.16635e-05 
-1.27021e-05 
-2.67262e-05 
-1.43343e-05 
-3.38444e-05 
-2.28666e-05 
-1.77566e-05 
-3.13121e-05 
-3.06467e-05 
-2.81541e-05 
-3.06758e-05 
-7.63523e-06 
-3.76717e-05 
-3.23987e-05 
-6.85207e-06 
-1.86265e-05 
-2.9086e-05 
-9.17031e-06 
-9.06354e-06 
-3.66197e-05 
-2.89775e-05 
-3.09004e-05 
-1.24823e-05 
-8.7901e-06 
-1.12285e-05 
-1.69197e-05 
-1.42425e-05 
-2.12599e-05 
-2.98852e-05 
-1.15283e-05 
-1.37856e-05 
-1.3432e-05 
-9.51869e-06 
-7.73375e-06 
-1.62833e-05 
-3.59905e-05 
-3.78239e-05 
-3.06142e-05 
ITEM: TIMESTEP
5600000
ITEM: NUMBER OF ATOMS
896
ITEM: BOX BOUNDS pp pp ff
-1.7300000000000001e+01 1.6899999999999999e+01
-1.8300000000000001e+01 1.7800000000000001e+01
-5.0000000000000000e+01 5.0000000000000000e+01
ITEM: ATOMS q 
0.0241208 
0.0146637 
0.0205404 
0.00244052 
0.0351924 
0.0425664 
0.0282117 
0.0559133 
0.0519068 
0.0358808 
0.0349411 
0.0140313 
0.023047 
0.0366164 
0.0167833 
0.0172861 
0.0218735 
0.0424439 
0.046741 
0.0453508 
0.0224115 
0.0486895 
0.0461602 
0.0174204 
0.0411063 
0.0456449 
0.050164 
0.0326229 
6.35146e-05 
0.0105899 
0.000239897 
4.37418e-05 
0.00432851 
2.75154e-05 
0.000156511 
0.000126418 
7.55901e-05 
0.000291366 
0.000248526 
0.0026587 
5.88424e-05 
0.00231953 
4.27643e-05 
7.65673e-05 
0.000197417 
3.4129e-05 
0.0121306 
-3.41243e-06 
-6.60304e-06 
-1.56588e-06 
-2.00012e-06 
-2.91577e-06 
9.54895e-07 
-9.34661e-07 
-8.23954e-06 
-1.8856e-06 
-1.88914e-06 
-2.39956e-06 
-1.22634e-06 
-6.19236e-06 
-3.95673e-06 
-8.75284e-07 
-1.26951e-06 
-3.41973e-06 
0.00702867 
6.27792e-05 
0.000184207 
0.00017241 
2.3911e-05 
0.0199542 
3.27015e-05 
-3.86698e-05 
0.00874773 
7.5628e-05 
0.00635039 
9.46717e-05 
0.00828559 
7.27876e-05 
0.000185828 
9.78651e-05 
7.16673e-05 
0.00925305 
4.4066e-05 
0.0076177 
7.83654e-05 
-2.67047e-06 
-4.9302e-07 
-2.93365e-06 
-2.82251e-06 
-1.45295e-05 
-5.36232e-06 
-1.20417e-05 
-2.19832e-06 
-1.35329e-06 
-2.22812e-06 
-2.97674e-06 
-1.11997e-05 
-3.89632e-06 
-2.16498e-06 
-1.61607e-06 
-2.30028e-06 
-4.62526e-06 
0.00863343 
0.00840272 
-1.55218e-05 
3.17106e-05 
0.000558398 
0.000187449 
4.99164e-06 
3.48824e-05 
0.000276061 
0.000182083 
0.0126807 
6.69498e-05 
0.0123257 
0.000291215 
0.00792827 
0.000148398 
0.000260639 
5.94159e-06 
0.0181343 
1.44082e-05 
0.000311434 
0.0176474 
0.0180326 
-2.60609e-06 
-3.01727e-06 
-9.19696e-06 
-2.13635e-06 
-7.24368e-06 
-3.91678e-06 
-4.37143e-06 
-1.91223e-06 
-8.99636e-06 
-3.3977e-06 
-2.95987e-06 
-5.18558e-06 
-5.48916e-06 
-1.02239e-05 
-5.72993e-06 
-3.79075e-06 
-7.60276e-06 
-1.39219e-05 
-2.34343e-06 
-3.41221e-07 
-1.6195e-05 
-1.8418e-06 
-2.09959e-06 
-2.02378e-06 
6.71871e-05 
0.000116899 
0.000151636 
3.0991e-05 
0.0148423 
3.31056e-05 
0.000104244 
0.0144218 
1.30344e-05 
0.000103288 
0.0135767 
-4.34737e-05 
0.0191771 
-1.44708e-05 
5.19496e-05 
9.40047e-05 
0.00700757 
7.96596e-06 
0.00529163 
-4.56339e-05 
0.0246204 
0.000335818 
-3.09044e-06 
-4.03421e-06 
-5.75281e-07 
-2.507e-06 
-4.73216e-06 
-1.38016e-05 
-3.5803e-06 
-2.6476e-06 
-3.87662e-06 
-6.65454e-07 
-1.50908e-05 
-3.16558e-06 
-1.36517e-05 
-4.60779e-05 
-8.11163e-06 
-1.12368e-05 
-8.38202e-06 
-1.50312e-05 
-3.94554e-05 
-5.27989e-05 
-4.78934e-05 
-4.8856e-05 
-5.23783e-05 
-1.72018e-05 
-2.22747e-05 
-2.59847e-05 
-3.45863e-05 
-1.59779e-05 
-4.78554e-05 
-5.08101e-05 
-4.52751e-05 
-5.06866e-05 
-3.01897e-05 
-4.81548e-05 
-3.32773e-05 
-2.55367e-05 
-1.82679e-05 
-2.25173e-05 
-3.80015e-05 
-4.32368e-05 
-1.87298e-05 
-5.33395e-05 
-4.6316e-05 
-2.60572e-05 
-2.27257e-05 
-2.53619e-05 
-3.0046e-05 
-3.87774e-05 
-2.60749e-05 
-2.09423e-05 
-2.6388e-05 
-3.53062e-05 
-2.75021e-05 
0.0541318 
0.0404163 
0.0226823 
0.0148514 
0.030358 
0.0489365 
0.0108657 
0.0259406 