ITEM: TIMESTEP
5000000
ITEM: NUMBER OF ATOMS
896
ITEM: BOX BOUNDS pp pp ff
-1.7300000000000001e+01 1.6899999999999999e+01
-1.8300000000000001e+01 1.7800000000000001e+01
-5.0000000000000000e+01 5.0000000000000000e+01
ITEM: ATOMS q 
0 
0 
0 
0 
0 
0 
0 
0 
0 
0 
0 
0 
0 
0 
0 
0 
0 
0 
0 
0 
0 
0 
0 
0 
0 
0 
0 
0 
0 
0 
0 
0 
0 
0 
0 
0 
0 
0 
0 
0 
0 
0 
0 
0 
0 
0 
0 
0 
0 
0 
0 
0 
0 
0 
0 
0 
0 
0 
0 
0 
0 
0 
0 
0 
0 
0 
0 
0 
0 
0 
0 
0 
0 
0 
0 
0 
0 
0 
0 
0 
0 
0 
0 
0 
0 
0 
0 
0 
0 
0 
0 
0 
0 
0 
0 
0 
0 
0 
0 
0 
0 
0 
0 
0 
0 
0 
0 
0 
0 
0 
0 
0 
0 
0 
0 
0 
0 
0 
0 
0 
0 
0 
0 
0 
0 
0 
0 
0 
0 
0 
0 
0 
0 
0 
0 
0 
0 
0 
0 
0 
0 
0 
0 
0 
0 
0 
0 
0 
0 
0 
0 
0 
0 
0 
0 
0 
0 
0 
0 
0 
0 
0 
0 
0 
0 
0 
0 
0 
0 
0 
0 
0 
0 
0 
0 
0 
0 
0 
0 
0 
0 
0 
0 
0 
0 
0 
0 
0 
0 
0 
0 
0 
0 
0 
0 
0 
0 
0 
0 
0 
0 
0 
0 
0 
0 
0 
0 
0 
0 
0 
0 
0 
0 
0 
0 
0 
0 
0 
0 
0 
0 
0 
0 
0 
0 
0 
0 
0 
0 
0 
0 
0 
0 
0 
0 
0 
0 
0 
0 
0 
0 
0 
0 
0 
0 
0 
0 
0 
0 
0 
0 
0 
0 
0 
0 
0 
0 
0 
0 
0 
0 
0 
0 
0 
0 
0 
0 
0 
0 
0 
0 
0 
0 
0 
0 
0 
0 
0 
0 
0 
0 
0 
0 
0 
0 
0 
0 
0 
0 
0 
0 
0 
0 
0 
0 
0 
0 
0 
0 
0 
0 
0 
0 
0 
0 
0 
0 
0 
0 
0 
0 
0 
0 
0 
0 
0 
0 
0 
0 
0 
0 
0 
0 
0 
0 
0 
0 
0 
0 
0 
0 
0 
0 
0 
0 
0 
0 
0 
0 
0 
0 
0 
0 
0 
0 
0 
0 
0 
0 
0 
0 
0 
0 
0 
0 
0 
0 
0 
0 
0 
0 
0 
0 
0 
0 
0 
0 
0 
0 
0 
0 
0 
0 
0 
0 
0 
0 
0 
0 
0 
0 
0 
0 
0 
0 
0 
0 
0 
0 
0 
0 
0 
0 
0 
0 
0 
0 
0 
0 
0 
0 
0 
0 
0 
0 
0 
0 
0 
0 
0 
0 
0 
0 
0 
0 
0 
0 
0 
0 
0 
0 
0 
0 
0 
0 
0 
0 
0 
0 
0 
0 
0 
0 
0 
0 
0 
0 
0 
0 
0 
0 
0 
0 
0 
0 
0 
0 
0 
0 
0 
0 
0 
0 
0 
0 
0 
0 
0 
0 
0 
0 
0 
0 
0 
0 
0 
0 
0 
0 
0 
0 
0 
0 
0 
0 
0 
0 
0 
0 
0 
0 
0 
0 
0 
0 
0 
0 
0 
0 
0 
0 
0 
0 
0 
0 
0 
0 
0 
0 
0 
0 
0 
0 
0 
0 
0 
0 
0 
0 
0 
0 
0 
0 
0 
0 
0 
0 
0 
0 
0 
0 
0 
0 
0 
0 
0 
0 
0 
0 
0 
0 
0 
0 
0 
0 
0 
0 
0 
0 
0 
0 
0 
0 
0 
0 
0 
0 
0 
0 
0 
0 
0 
0 
0 
0 
0 
0 
0 
0 
0 
0 
0 
0 
0 
0 
0 
0 
0 
0 
0 
0 
0 
0 
0 
0 
0 
0 
0 
0 
0 
0 
0 
0 
0 
0 
0 
0 
0 
0 
0 
0 
0 
0 
0 
0 
0 
0 
0 
0 
0 
0 
0 
0 
0 
0 
0 
0 
0 
0 
0 
0 
0 
0 
0 
0 
0 
0 
0 
0 
0 
0 
0 
0 
0 
0 
0 
0 
0 
0 
0 
0 
0 
0 
0 
0 
0 
0 
0 
0 
0 
0 
0 
0 
0 
0 
0 
0 
0 
0 
0 
0 
0 
0 
0 
0 
0 
0 
0 
0 
0 
0 
0 
0 
0 
0 
0 
0 
0 
0 
0 
0 
0 
0 
0 
0 
0 
0 
0 
0 
0 
0 
0 
0 
0 
0 
0 
0 
0 
0 
0 
0 
0 
0 
0 
0 
0 
0 
0 
0 
0 
0 
0 
0 
0 
0 
0 
0 
0 
0 
0 
0 
0 
0 
0 
0 
0 
0 
0 
0 
0 
0 
0 
0 
0 
0 
0 
0 
0 
0 
0 
0 
0 
0 
0 
0 
0 
0 
0 
0 
0 
0 
0 
0 
0 
0 
0 
0 
0 
0 
0 
0 
0 
0 
0 
0 
0 
0 
0 
0 
0 
0 
0 
0 
0 
0 
0 
0 
0 
0 
0 
0 
0 
0 
0 
0 
0 
0 
0 
0 
0 
0 
0 
0 
0 
0 
0 
0 
0 
0 
0 
0 
0 
0 
0 
0 
0 
0 
0 
0 
0 
0 
0 
0 
0 
0 
0 
0 
0 
0 
0 
0 
0 
0 
0 
0 
0 
0 
0 
0 
0 
0 
0 
0 
0 
0 
0 
0 
0 
0 
0 
0 
0 
0 
0 
0 
0 
0 
0 
0 
0 
0 
0 
0 
0 
0 
0 
0 
0 
0 
0 
0 
0 
0 
0 
0 
0 
0 
0 
0 
0 
0 
0 
0 
0 
0 
0 
0 
0 
0 
0 
0 
0 
0 
0 
0 
0 
0 
0 
0 
0 
0 
0 
0 
0 
0 
0 
0 
0 
0 
0 
0 
0 
0 
0 
0 
0 
ITEM: TIMESTEP
5200000
ITEM: NUMBER OF ATOMS
896
ITEM: BOX BOUNDS pp pp ff
-1.7300000000000001e+01 1.6899999999999999e+01
-1.8300000000000001e+01 1.7800000000000001e+01
-5.0000000000000000e+01 5.0000000000000000e+01
ITEM: ATOMS q 
-7.72798e-05 
-0.000199248 
-5.48e-05 
-5.71854e-05 
-0.000317509 
-9.1415e-05 
-0.000266968 
-0.000157143 
-0.000268474 
-0.000260457 
-6.06553e-05 
-0.000112504 
-0.000154163 
-0.000213412 
-9.56665e-05 
-0.000105928 
-0.000107506 
-0.000269631 
-0.000252747 
-0.000112518 
-8.57927e-05 
-0.000342772 
-0.00013157 
-0.000115478 
-0.000239433 
-0.000111538 
-0.000309054 
-0.000114046 
-0.000177238 
-0.000301737 
-0.000108839 
-0.000109369 
-0.000291488 
-0.000253336 
-7.8875e-05 
-8.46827e-05 
-9.24354e-05 
-0.000119357 
-0.000135162 
-0.000222217 
-0.000165303 
-9.6562e-05 
-3.50024e-05 
-3.72629e-06 
-4.63696e-06 
-2.97215e-06 
-5.45298e-06 
-5.07143e-06 
-3.72857e-06 
-4.73151e-06 
-6.35463e-06 
-5.69504e-06 
-3.40327e-05 
-4.45503e-06 
-3.52147e-05 
-4.00544e-06 
-3.35762e-06 
-4.73536e-06 
-2.38606e-06 
-1.99846e-05 
-0.00142387 
-8.43634e-06 
-0.00238412 
-1.11368e-05 
-0.000142238 
-2.25756e-05 
-0.000540194 
-3.3864e-05 
-0.00166742 
-6.01093e-05 
-1.12288e-05 
-3.6878e-05 
-0.00141228 
-1.34546e-05 
-0.00442268 
-5.42835e-05 
-1.13896e-05 
-7.63599e-05 
-5.90687e-05 
-0.000233454 
0.00219745 
-3.54028e-06 
-4.62895e-06 
-3.47362e-06 
-2.82975e-06 
-3.64222e-06 
-3.82925e-06 
-8.56157e-05 
-4.35956e-06 
-4.68401e-05 
-4.43634e-06 
-6.02875e-05 
-3.04053e-06 
-4.83667e-06 
-5.07481e-06 
-4.65224e-06 
-3.39495e-06 
-6.68746e-05 
-4.91868e-06 
-4.60309e-05 
-1.12683e-05 
-0.000209663 
-5.05753e-05 
-0.0100453 
-7.08492e-06 
-0.00370311 
-1.25439e-05 
-5.70412e-05 
-4.89435e-05 
-2.71556e-05 
-0.00317472 
-1.80133e-05 
1.8243e-06 
-0.00340405 
-5.36321e-05 
-3.22359e-05 
2.17309e-05 
-0.00282016 
-0.00786165 
-4.92723e-06 
-7.61979e-06 
-4.44766e-05 
-5.27649e-06 
-3.76185e-06 
-4.19776e-06 
-5.15924e-06 
-4.32785e-06 
-6.0909e-05 
-3.48007e-06 
-5.54638e-06 
-4.85295e-05 
-4.58252e-06 
-4.33095e-06 
-3.54279e-06 
-7.34189e-05 
-3.35381e-06 
-4.61785e-06 
-0.0015973 
-0.00482699 
-1.30534e-05 
-1.75898e-05 
-0.000803072 
-3.20643e-05 
-0.00133303 
-4.41525e-06 
-1.24762e-05 
-6.11705e-05 
-0.00247018 
3.088e-06 
1.85073e-05 
6.70247e-06 
-1.14496e-05 
-0.00203636 
2.84311e-06 
5.88121e-06 
-1.50266e-05 
-0.00278708 
-1.82548e-05 
-2.60582e-06 
-6.32087e-05 
-4.46489e-06 
-4.67198e-06 
-2.95119e-06 
-2.72992e-06 
-3.90132e-06 
-2.93791e-06 
-3.81099e-06 
-7.07745e-05 
-3.15509e-06 
-3.28301e-06 
-3.02151e-06 
-2.28049e-06 
-8.73509e-05 
-1.62231e-06 
-2.44987e-06 
-0.00809179 
-0.00540374 
-4.01765e-05 
-5.27183e-05 
-0.00749526 
-4.73791e-05 
-1.20525e-05 
-2.95848e-06 
-0.00752047 
1.67748e-05 
-0.00882067 
3.73028e-05 
9.33625e-06 
-3.01486e-05 
-0.00314334 
3.40754e-06 
5.08475e-06 
2.84656e-06 
3.31208e-05 
-0.0123109 
3.14868e-05 
-0.0146294 
-0.0124774 
0.000448568 
-0.01579 
-0.01559 
0.00481926 
-0.00816938 
-0.0128687 
-0.0198762 
-0.00851287 
-0.00574989 
-0.014919 
-0.00629863 
-0.0185349 
-0.00981123 
-0.00711226 
-0.0052055 
-0.0175339 
-0.00214804 
0.00258331 
-0.00695017 
-0.00651404 
-0.00595193 
-0.0149474 
-0.0209526 
-0.0206261 
-0.0202564 
-0.0162432 
-9.45533e-05 
-0.00025358 
-0.000144443 
-0.000207231 
-9.69787e-05 
-0.000230855 
-0.000179804 
-0.000121784 
-0.000285906 
-0.000253944 
-0.000137523 
-0.000205411 
-0.000135479 
-0.000113267 
-0.000139857 
-0.000186484 
-0.000121303 
-0.000160783 
-0.00014503 
-0.000141058 
-4.48365e-05 
-0.000247646 
-7.20617e-05 
-0.00025908 
-0.000281838 
-8.03738e-05 
-4.15151e-05 
-0.000215921 
-0.000265551 
-5.76797e-05 
-0.000286248 
-0.000270152 
-8.70933e-05 
-0.000161112 
-0.000270576 
-9.25668e-05 
-0.000139456 
-0.000240819 
-0.000121342 
-0.000181005 
-0.000253013 
-5.1197e-06 
-4.78059e-06 
-2.5463e-06 
-6.50654e-05 
-4.22472e-06 
-7.52413e-05 
-3.54719e-06 
-4.69485e-06 
-4.19829e-06 
-4.90496e-05 
-5.04094e-06 
-2.42542e-06 
-1.54567e-06 
-3.86135e-05 
-4.4089e-06 
-5.8951e-06 
-3.50826e-06 
-4.52531e-06 
-5.00516e-05 
-0.00588012 
-0.00418072 
-0.000157626 
-0.00983098 
-4.34286e-05 
-4.94257e-05 
-6.49565e-05 
-0.00396872 
-1.15394e-05 
-0.00358737 
-4.97645e-06 
-8.59858e-05 
-0.000276777 
-2.3464e-05 
-1.51867e-05 
-0.000183858 
-7.37212e-05 
-1.8412e-05 
-0.00203349 
-4.56355e-05 
-2.4373e-06 
-7.50032e-05 
-3.37901e-06 
-7.44074e-05 
-3.44473e-06 
-2.75989e-06 
-3.43054e-06 
-1.82784e-06 
-2.40834e-06 
-4.41231e-06 
-4.72708e-06 
-3.58264e-06 
-7.23953e-05 
-2.68221e-06 
-3.6674e-06 
-3.52456e-06 
-3.27093e-06 
-0.00527209 
-0.00726184 
-1.12302e-05 
-2.01271e-05 
-0.00262255 
8.36977e-06 
-0.0040373 
3.3544e-06 
-5.57826e-05 
-4.86747e-05 
-0.00707599 
7.18093e-06 
-0.00526827 
-1.49213e-05 
-2.84423e-05 
-2.77349e-05 
-7.83274e-06 
-0.00371888 
-5.04937e-06 
1.15984e-05 
-0.00356185 
-1.16268e-05 
-0.00518549 
-4.56915e-06 
-3.46549e-06 
-4.88704e-07 
-3.10946e-05 
-4.01535e-06 
-6.49503e-06 
-2.82715e-06 
-4.50903e-06 
-4.35885e-06 
-3.19843e-05 
-4.45479e-06 
-8.27275e-06 
-4.3369e-06 
-4.05952e-05 
-2.75907e-06 
-5.69852e-06 
-4.18871e-06 
-0.000161569 
-6.60835e-05 
-1.03471e-05 
-0.00211115 
7.53385e-06 
0.000425381 
-7.72821e-05 
-2.5107e-05 
-0.00300745 
-1.27046e-05 
3.54814e-05 
-0.000394175 
-2.75137e-05 
-1.40576e-07 
0.00223317 
5.64736e-06 
1.17352e-05 
9.523e-05 
3.31734e-05 
-8.66263e-05 
-0.00116041 
-0.00314262 
-5.16534e-06 
-3.92459e-06 
-6.23764e-05 
-2.95963e-06 
-4.28542e-06 
-3.16509e-06 
-2.05448e-06 
-2.3153e-06 
-6.46434e-06 
-7.93786e-06 
-9.88259e-07 
-6.54314e-05 
-1.09266e-06 
-7.98677e-05 
-3.53802e-06 
-5.04632e-06 
-3.68131e-06 
-3.75689e-05 
-0.00418719 
-4.37056e-05 
-2.94735e-05 
-0.00342386 
-1.33639e-05 
-2.97389e-05 
-3.62042e-05 
-0.0012153 
-2.09654e-05 
-0.00358825 
-2.78101e-05 
-6.67803e-05 
-8.25873e-05 
-2.59666e-05 
-0.00914307 
-3.47378e-05 
-2.70123e-05 
-0.00526899 
5.2257e-06 
-0.00721772 
-0.0222935 
-0.00992724 
-0.0158585 
-0.00554998 
-0.0132657 
-0.0242111 
-0.0119724 
-0.00829538 
-0.022549 
-0.00360126 
-0.0186737 
-0.0133677 
-0.0107173 
-0.0296141 
-0.0126815 
-0.0135318 
0.00304688 
-0.0134059 
-0.0208085 
0.0149698 
-0.00334169 
-0.0243391 
-0.00185843 
-0.00607727 
-9.95924e-05 
-0.00639491 
-0.0085986 
-0.000109743 
-0.000254141 
-7.43939e-05 
-8.13468e-05 
-0.000145832 
-0.000256225 
-9.2786e-05 
-8.11109e-05 
-0.000265658 
-0.000163899 
-0.0003168 
-0.000188526 
-0.00033361 
-0.000101351 
-5.94688e-05 
-0.000269646 
-0.000113096 
-0.000268476 
-0.000122877 
-0.000315882 
-7.98596e-05 
-0.000135127 
-0.000119244 
-0.000103844 
-0.00022397 
-0.000148438 
-0.000287668 
-7.59848e-05 
-0.000115055 
-0.000185448 
-0.000178562 
-0.000195077 
-0.000117401 
-0.000284647 
-6.1315e-05 
-0.00032707 
-0.00027009 
-5.83313e-05 
-0.000272665 
-0.000266801 
-0.000246829 
-3.73628e-06 
-6.12173e-06 
-4.42101e-06 
-4.85383e-06 
-4.65955e-06 
-5.6891e-06 
-4.20718e-06 
-4.43904e-06 
-4.24929e-06 
-4.32828e-06 
-7.12656e-05 
-4.76222e-06 
-2.99927e-05 
-5.52751e-06 
-4.77356e-06 
-4.73993e-06 
-4.49237e-05 
-2.29885e-05 
-0.000182974 
-1.14166e-05 
-1.60893e-05 
-5.12092e-05 
-0.0022606 
-8.55153e-05 
-0.00375558 
-1.4207e-05 
-0.000139694 
-4.51078e-05 
-0.0038846 
-1.04892e-05 
-5.69576e-05 
-0.00270946 
-0.00129547 
1.79047e-05 
-4.89066e-05 
1.52706e-05 
-1.71212e-06 
-0.00123752 
-0.00202053 
-3.27469e-05 
-5.4804e-06 
-3.36431e-06 
-5.08883e-06 
-5.23207e-06 
-4.532e-06 
-7.81199e-06 
-3.69885e-06 
-6.88944e-06 
-3.5347e-05 
-4.47819e-06 
-5.05902e-06 
-6.21391e-06 
-5.62001e-06 
-5.59302e-06 
-7.03944e-06 
-1.53863e-05 
-0.00212211 
-4.81851e-05 
-0.00331334 
-2.81151e-06 
-4.81645e-06 
-8.41982e-06 
-4.83803e-05 
-0.000879071 
-1.1109e-05 
-3.69428e-06 
-1.18009e-05 
-4.89311e-06 
1.59425e-05 
-0.000134756 
-5.27408e-05 
-4.96423e-06 
-2.42795e-05 
-0.00293231 
-4.10668e-06 
-9.23218e-07 
-1.7557e-06 
-7.20437e-05 
-3.06964e-06 
-5.03821e-05 
-4.25413e-06 
-3.66281e-06 
-6.09005e-06 
-1.62177e-06 
-1.33587e-07 
-3.14064e-06 
-8.28643e-05 
-4.91806e-06 
-5.64522e-05 
-3.95511e-07 
-2.73456e-06 
-6.50739e-06 
-0.00553126 
-6.33634e-05 
-6.15016e-05 
-1.20418e-05 
-0.0130956 
1.65657e-05 
-0.016113 
-5.91168e-05 
-0.000129342 
-0.00381545 
0.000726144 
9.36657e-06 
4.64881e-06 
-0.0210106 
-2.26292e-05 
5.52347e-05 
-0.00930344 
1.57677e-05 
2.35328e-05 
4.75817e-05 
0.000653688 
6.02162e-05 
-5.94622e-06 
-4.20453e-06 
-3.48463e-05 
-5.51421e-06 
-4.90425e-06 
-6.72367e-06 
-2.60708e-05 
-4.27486e-06 
-4.65205e-06 
-5.76831e-06 
-4.36954e-05 
-2.70063e-06 
-5.17965e-05 
-6.49494e-06 
-6.6755e-06 
-7.23522e-06 
-2.99654e-05 
-4.54284e-06 
-4.20984e-05 
-6.22807e-06 
-0.00130449 
8.30274e-06 
-6.71038e-06 
-1.11888e-05 
0.00168349 
-1.17247e-05 
-0.000614532 
2.64595e-06 
-0.000171427 
3.79568e-05 
-7.45526e-05 
-3.07736e-07 
-0.00131533 
1.44753e-05 
5.90206e-05 
1.47681e-05 
1.56268e-05 
0.0059981 
2.07899e-05 
-0.00598942 
-0.00961162 
-0.00838654 
-0.0117192 
-0.0101626 
-0.0182011 
0.00164852 
-0.0131645 
0.00125517 
-0.010279 
-0.0113481 
-0.00225962 
-0.0173859 
-0.00871432 
-0.0150157 
-0.0146097 
0.000583486 
-0.0199179 
-0.0257199 
-0.0201683 
-0.00075532 
0.0171353 
-0.00407994 
0.0196013 
-0.0153538 
0.00422272 
-0.00271475 
-0.00791994 
-0.0107042 
-0.000782207 
-0.000111711 
-0.00016221 
-0.000188911 
-0.000201603 
-8.71015e-05 
-0.000165291 
-0.000131828 
-0.000127302 
-8.14675e-05 
-0.000237407 
-0.00024219 
-0.000130855 
-0.000235205 
-0.000114003 
-9.4826e-05 
-0.000200227 
-9.36267e-05 
-0.000285593 
-0.000161593 
-0.000155386 
-0.000161986 
-0.000169632 
-0.000263683 
-9.27433e-05 
-0.000248969 
-7.88655e-05 
-0.000125314 
-0.000291337 
-0.000253526 
-7.67968e-05 
-0.000271818 
-8.35457e-05 
-0.000270284 
-0.000337267 
-0.000292808 
-5.17816e-05 
-0.000106716 
-4.55663e-05 
-0.000211629 
-4.83168e-05 
-6.95546e-05 
-0.000292877 
-0.000285841 
-2.44174e-06 
-2.88926e-06 
-2.33518e-06 
-7.80395e-05 
-3.47186e-06 
-5.74839e-05 
-5.72456e-06 
-2.33253e-06 
-5.65967e-06 
-3.73904e-06 
-2.92194e-06 
-1.74141e-06 
-8.01529e-05 
-2.28273e-06 
-3.01931e-06 
-3.96268e-06 
-2.18844e-06 
-4.863e-05 
-0.0133728 
0.00570514 
-1.58481e-05 
-1.57911e-05 
-0.00761832 
2.19189e-05 
-0.00789824 
-1.43936e-05 
-4.14552e-06 
-1.04638e-05 
-0.00507251 
-0.000177347 
6.91314e-06 
-1.75548e-05 
-5.86297e-05 
-0.00427957 
-1.06395e-05 
-3.40861e-05 
-3.36266e-05 
-0.0106384 
-0.000120297 
-3.40145e-06 
-5.27804e-05 
-5.82191e-06 
-4.97085e-06 
-5.02117e-06 
-3.80823e-06 
-5.8796e-06 
-6.22169e-05 
-3.82987e-06 
-3.53389e-06 
-5.94617e-06 
-3.97419e-06 
-4.39252e-06 
-4.22961e-05 
-4.6757e-06 
-5.789e-06 
-8.00426e-06 
0.00119417 
-0.00235189 
3.48293e-05 
-3.11127e-05 
-0.00155426 
-4.80867e-05 
-0.00405775 
-2.69135e-05 
-7.00733e-05 
-4.83193e-05 
-0.00349172 
-1.73087e-05 
-0.00229778 
-0.000234125 
-3.2867e-05 
-0.00431596 
-2.56987e-05 
-0.000210754 
-0.000109071 
-5.14013e-06 
-0.00438411 
-1.45717e-05 
-6.19704e-05 
-0.00797933 
-0.00515065 
-3.51843e-06 
-5.00178e-06 
-3.32216e-06 
-2.50177e-06 
-3.83501e-06 
-4.99599e-06 
-3.18694e-06 
-3.34339e-05 
-3.13861e-06 
-7.40405e-05 
-5.6537e-06 
-5.6853e-05 
-5.98396e-06 
-3.97652e-06 
-5.31661e-06 
-5.28346e-06 
-7.22738e-06 
-2.04128e-05 
-5.88077e-05 
-0.0017275 
-0.000105706 
-0.00440217 
1.44407e-06 
-2.53789e-05 
-9.29895e-05 
-0.000694589 
-0.00362481 
-6.75517e-06 
-8.46912e-06 
-1.61289e-05 
-5.82596e-06 
0.000345397 
-8.64577e-06 
-6.93179e-06 
-4.3709e-05 
-5.87473e-05 
-4.15689e-05 
-0.00604962 
-0.00141364 
-3.26223e-06 
-7.22814e-06 
-5.92767e-06 
-2.6292e-06 
-3.98821e-06 
-5.23272e-06 
-8.35041e-06 
-3.38091e-06 
-6.55087e-06 
-5.57204e-06 
-7.10124e-06 
-4.69959e-07 
-4.2768e-06 
-2.02196e-05 
-4.35139e-06 
-0.000273885 
-2.31461e-05 
-1.65562e-05 
-0.000944406 
-0.000164233 
-5.18047e-06 
2.47557e-06 
-0.000118837 
-0.000131669 
-1.33652e-05 
-5.92341e-05 
-7.35825e-05 
-0.00215211 
-0.000107888 
-6.62281e-06 
-0.000227135 
0.00171923 
-0.0267417 
-0.0126913 
0.00376384 
-0.000761637 
-0.00787564 
-0.0212789 
0.00457185 
0.00699865 
-0.0282006 
-0.0131486 
-0.0242279 
-0.0336964 
-0.0141201 
-0.0117652 
0.00147608 
-0.0187033 
-0.0106138 
0.000999283 
-0.00469373 
-0.0104965 
-0.000483921 
-0.0308097 
-0.0204445 
-0.00719852 
-0.00353299 
-0.0111068 
-0.00580437 
-0.00404735 
-0.0134783 
ITEM: TIMESTEP
5400000
ITEM: NUMBER OF ATOMS
896
ITEM: BOX BOUNDS pp pp ff
-1.7300000000000001e+01 1.6899999999999999e+01
-1.8300000000000001e+01 1.7800000000000001e+01
-5.0000000000000000e+01 5.0000000000000000e+01
ITEM: ATOMS q 
-3.5784e-05 
-9.5738e-05 
-2.53318e-05 
-2.80131e-05 
-0.000153374 
-4.38861e-05 
-0.000129605 
-7.48471e-05 
-0.0001297 
-0.000126713 
-2.84023e-05 
-5.49824e-05 
-7.49454e-05 
-0.00010265 
-4.71901e-05 
-5.16674e-05 
-5.25546e-05 
-0.000130561 
-0.000121908 
-5.39899e-05 
-4.15621e-05 
-0.00016695 
-6.21413e-05 
-5.47182e-05 
-0.0001165 
-5.26966e-05 
-0.00014979 
-5.38767e-05 
-8.48736e-05 
-0.00014588 
-5.24873e-05 
-5.1986e-05 
-0.00014001 
-0.000122915 
-3.73706e-05 
-3.97802e-05 
-4.3576e-05 
-5.69963e-05 
-6.49613e-05 
-0.000107115 
-7.9131e-05 
-4.65297e-05 
-1.70828e-05 
-8.99403e-07 
-4.02542e-06 
-8.33205e-07 
-5.13353e-07 
-2.07931e-06 
-2.79272e-06 
-7.1132e-07 
-4.90164e-06 
-4.43194e-06 
-1.53835e-05 
-1.98149e-06 
-1.53271e-05 
-2.99864e-06 
-2.20208e-06 
-2.47554e-06 
-9.79435e-07 
-1.72828e-05 
-0.000671884 
-9.08231e-06 
-0.00109978 
-4.8078e-05 
-0.000111882 
-1.55094e-05 
-0.0024571 
-2.76185e-05 
-0.00119235 
-6.2614e-05 
-1.43985e-05 
-2.80829e-05 
-0.00167697 
-8.66707e-06 
-0.00333204 
-5.60294e-05 
-1.5582e-05 
-9.7041e-05 
-6.98703e-05 
-0.000889294 
-0.0043892 
-5.64911e-07 
2.36973e-07 
-4.1119e-07 
1.24438e-06 
-1.21586e-06 
1.55925e-06 
-4.20691e-05 
-9.99491e-07 
-2.23703e-05 
-3.04305e-06 
-2.89998e-05 
-9.93505e-07 
-2.86294e-06 
-2.46245e-06 
-1.90766e-06 
-2.66419e-06 
-3.13084e-05 
-2.44025e-06 
-8.27579e-05 
6.28316e-06 
-9.19743e-05 
-5.02421e-05 
-0.00792609 
1.19388e-05 
-0.00138239 
-4.65469e-05 
-5.42042e-05 
-3.92067e-05 
-1.13832e-05 
-0.00294797 
-3.03974e-06 
9.39522e-06 
-0.00323322 
-6.56504e-05 
-8.61141e-06 
2.35687e-05 
-0.0183048 
-0.0150123 
-1.73477e-06 
-5.23177e-06 
-1.94617e-05 
-3.77543e-06 
-3.29882e-06 
-3.75804e-06 
-3.52727e-06 
-3.12502e-06 
-2.86875e-05 
-6.45421e-07 
-2.69201e-06 
-2.20405e-05 
-2.22921e-06 
-1.87646e-06 
-2.21884e-06 
-3.50269e-05 
-2.60572e-07 
-3.43035e-06 
-0.00376682 
-0.00455575 
-3.94956e-05 
-5.92037e-05 
-0.00718065 
-4.65218e-05 
-0.00427567 
-6.73005e-06 
-2.19388e-05 
-0.000100328 
-0.00445702 
-1.69158e-05 
-5.75576e-05 
-0.000122984 
-5.42076e-05 
-0.00733493 
7.98552e-07 
3.71653e-05 
-1.1765e-05 
-0.010929 
-4.89091e-05 
1.69056e-06 
-2.98803e-05 
-1.02657e-06 
-1.6965e-06 
-1.67822e-06 
-2.51123e-06 
-2.85949e-06 
-2.22871e-06 
5.43986e-07 
-3.48339e-05 
2.00278e-06 
-8.32386e-07 
-1.20789e-06 
2.36793e-07 
-4.1746e-05 
-8.23522e-07 
-3.63343e-07 
-0.00900207 
-0.00450271 
-4.92478e-05 
-2.60586e-05 
-0.0137611 
-0.000155024 
2.0097e-05 
1.0413e-06 
-0.00633761 
3.4975e-05 
-0.00488674 
5.2258e-05 
-1.14334e-05 
-4.8992e-05 
-0.0108963 
-3.07342e-05 
4.71781e-06 
3.30387e-06 
1.34731e-05 
-0.0128283 
3.48463e-06 
-0.00790417 
-0.00722953 
-0.0171287 
-0.0122803 
-0.0122619 
-0.00974878 
-0.00520108 
-0.0097535 
-0.00971665 
-0.0254851 
-0.00547888 
-0.0145726 
-0.0104811 
-0.0247022 
-0.0193106 
-0.0234022 
-0.0109562 
-0.00238514 
-0.00135597 
-0.0361943 
-0.0071801 
-0.019724 
-0.0245476 
-0.0286393 
-0.00622752 
-0.0257133 
-0.0165799 
-0.0252857 
-4.58751e-05 
-0.000121246 
-6.97931e-05 
-9.96734e-05 
-4.69797e-05 
-0.000110478 
-8.63914e-05 
-5.93192e-05 
-0.000136743 
-0.000121493 
-6.56974e-05 
-9.82883e-05 
-6.54637e-05 
-5.47917e-05 
-6.75839e-05 
-8.9442e-05 
-5.88722e-05 
-7.79193e-05 
-7.04929e-05 
-6.83619e-05 
-2.16506e-05 
-0.000118769 
-3.49422e-05 
-0.000125072 
-0.000135829 
-3.85579e-05 
-1.91003e-05 
-0.000103593 
-0.000127803 
-2.83532e-05 
-0.000137447 
-0.00013003 
-4.20938e-05 
-7.76965e-05 
-0.000130577 
-4.40772e-05 
-6.72941e-05 
-0.000115834 
-5.90549e-05 
-8.75572e-05 
-0.00012159 
-3.49121e-07 
-9.18161e-07 
1.17924e-06 
-3.23618e-05 
-1.31193e-06 
-3.67474e-05 
1.14532e-07 
-1.54861e-06 
-1.40246e-06 
-2.51719e-05 
-5.51231e-07 
-7.27087e-07 
7.01857e-08 
-1.99625e-05 
-1.13574e-06 
-2.72369e-06 
-2.06631e-07 
-5.91439e-07 
-2.53278e-05 
-0.0129455 
-0.00505985 
-0.000144358 
-0.0137346 
-4.28447e-05 
-3.92264e-05 
-5.94673e-05 
-0.0017088 
3.24282e-07 
-0.00384705 
-1.5293e-06 
-7.80637e-05 
-0.000250869 
-1.38942e-05 
-4.24237e-06 
-4.17095e-05 
-6.03104e-05 
-8.4554e-06 
-0.00197272 
-3.1562e-05 
1.08901e-07 
-3.60462e-05 
-1.7841e-06 
-3.60443e-05 
-1.8829e-06 
-1.56794e-06 
-6.68143e-07 
2.35314e-07 
-5.01146e-07 
-1.33835e-06 
-2.0421e-06 
-6.7536e-07 
-3.55062e-05 
4.33754e-07 
-7.10604e-07 
-8.95647e-07 
-1.40779e-06 
-0.00440084 
-0.00505937 
-2.763e-05 
1.4213e-05 
-0.00198381 
5.40947e-06 
-0.00344062 
2.37364e-05 
-6.39515e-05 
-1.93972e-05 
-0.00794607 
-2.98437e-05 
-0.0131539 
-1.67369e-05 
-2.49933e-05 
-2.61699e-05 
-1.06537e-05 
-0.00314371 
1.38913e-07 
-2.1138e-05 
-0.00542557 
-1.81474e-07 
-0.000900511 
-3.07848e-06 
5.10339e-07 
2.5559e-07 
-1.53224e-05 
-1.69767e-06 
-3.78312e-06 
-1.44614e-06 
-1.42067e-06 
8.19365e-08 
-1.55929e-05 
3.84387e-07 
-4.59552e-06 
-1.1706e-06 
-1.96868e-05 
-1.2232e-06 
-7.79074e-07 
-1.48184e-06 
-6.50297e-05 
-8.24384e-05 
-1.45595e-05 
-0.000312141 
-1.78851e-05 
-0.00062866 
-4.68049e-05 
-2.27303e-05 
-0.0028566 
-1.27931e-05 
-5.32766e-05 
-0.00275056 
-2.31049e-05 
-1.67872e-05 
-0.00110329 
-2.54506e-05 
-6.30006e-05 
-0.000121504 
-4.57176e-05 
-4.17285e-05 
-0.00224781 
-0.000923606 
-2.78533e-06 
-1.8376e-06 
-2.98877e-05 
-5.4322e-07 
-1.55094e-06 
-1.39596e-06 
-2.1563e-06 
-1.93656e-06 
-2.30483e-06 
-2.87982e-06 
-9.08906e-07 
-3.1356e-05 
1.59863e-07 
-3.89691e-05 
3.5287e-08 
-1.4208e-06 
-8.33508e-07 
-3.88934e-05 
-0.00285965 
-6.7711e-05 
-2.24603e-05 
-0.00434795 
-1.71461e-05 
-5.386e-05 
1.10987e-05 
-0.00170553 
-3.16859e-05 
-0.00266577 
-3.0417e-05 
-6.16679e-05 
-5.63846e-05 
-3.82969e-05 
-0.0146772 
-5.02304e-05 
-6.99383e-05 
-0.0101243 
8.33108e-06 
-0.0104963 
-0.0228842 
-0.0120824 
-0.0116612 
-0.0072206 
-0.00886938 
-0.00446278 
-0.00307255 
-0.0172835 
-0.0175515 
-0.00436807 
-0.0108332 
-0.0194442 
-0.0101801 
-0.00553073 
-0.00805073 
-0.00557193 
-0.00114142 
-0.00693505 
-0.0143592 
-0.0183682 
-0.00741004 
-0.00419615 
-0.00691324 
-0.0204519 
-0.00497916 
-0.0201137 
-0.0140438 
-5.34826e-05 
-0.000122316 
-3.61517e-05 
-3.97189e-05 
-6.92527e-05 
-0.000122847 
-4.39717e-05 
-3.9651e-05 
-0.0001286 
-7.92172e-05 
-0.00015199 
-9.01294e-05 
-0.000160988 
-4.78523e-05 
-2.87516e-05 
-0.00012995 
-5.33918e-05 
-0.000129296 
-5.95681e-05 
-0.000152479 
-3.83189e-05 
-6.34253e-05 
-5.62656e-05 
-4.97698e-05 
-0.000108708 
-7.16705e-05 
-0.000138128 
-3.7754e-05 
-5.55831e-05 
-8.96847e-05 
-8.64253e-05 
-9.44779e-05 
-5.80261e-05 
-0.000136304 
-3.01823e-05 
-0.00015755 
-0.00012933 
-2.81933e-05 
-0.000130547 
-0.000127242 
-0.000117181 
2.62877e-06 
-1.12921e-06 
-2.74952e-07 
-1.85187e-06 
-2.4608e-06 
-2.60141e-06 
-1.51953e-06 
-1.61504e-06 
-7.74664e-07 
-3.41791e-07 
-3.47187e-05 
-1.4247e-06 
-1.49646e-05 
-1.19507e-06 
-1.83672e-06 
-2.83366e-06 
-2.23193e-05 
-0.000188212 
-0.00771218 
2.49899e-06 
-5.0145e-05 
-0.00021349 
-0.00569343 
-5.85927e-05 
-0.00597583 
-3.07525e-05 
-8.01371e-05 
-5.63742e-05 
-0.00492445 
-1.39483e-05 
-2.02014e-05 
-0.00379485 
0.000141382 
1.155e-05 
-3.8065e-05 
-3.35192e-05 
-3.40082e-05 
-0.0144119 
-0.00508349 
-1.65853e-05 
-3.47729e-06 
-1.33578e-06 
-1.24845e-06 
-2.53898e-06 
-3.10023e-06 
-5.19923e-06 
-1.60022e-06 
-1.776e-06 
-1.73656e-05 
-2.6056e-06 
-1.85347e-06 
-1.92976e-06 
-3.69645e-06 
-4.23701e-06 
-2.61896e-06 
-6.59207e-06 
0.000369503 
-3.29725e-05 
-0.00122928 
-1.318e-05 
-1.40728e-06 
-6.89949e-05 
-3.29828e-05 
-0.000462672 
-5.62077e-06 
-8.54279e-06 
-2.32347e-05 
-2.82651e-05 
-0.00251758 
-0.000145153 
-0.000113381 
-1.7752e-05 
-5.33935e-05 
-0.00153544 
-2.52121e-06 
-1.36982e-06 
3.65338e-07 
-3.4636e-05 
-2.01148e-06 
-2.54526e-05 
-2.52617e-06 
-4.57671e-08 
-3.42168e-07 
7.60408e-07 
4.92878e-07 
-3.90977e-07 
-4.09272e-05 
1.31464e-06 
-2.78064e-05 
-3.96185e-07 
2.44432e-06 
-3.69359e-07 
-0.00456348 
-2.94473e-05 
-4.26622e-05 
3.24017e-06 
-0.00826177 
2.62303e-06 
-0.0121645 
-0.000122617 
-9.76474e-06 
-0.00471794 
-0.0045174 
-3.4116e-06 
1.71613e-05 
-0.0181895 
-2.46365e-05 
1.11723e-05 
-0.0097832 
-8.75222e-06 
-3.69183e-06 
-7.99788e-05 
-0.00973257 
-4.90011e-05 
-1.06585e-06 
-3.11875e-06 
-1.77404e-05 
-9.73434e-08 
-1.56576e-06 
-3.05853e-06 
-1.26677e-05 
-1.73231e-06 
-6.89751e-07 
8.42402e-07 
-2.26941e-05 
1.86098e-06 
-2.71782e-05 
3.29973e-07 
1.14911e-07 
4.1584e-07 
-1.54939e-05 
1.75598e-06 
-2.27654e-05 
1.26189e-06 
-0.00161843 
-5.24935e-05 
-4.72754e-05 
-0.000168642 
-0.00990768 
-4.38918e-06 
-0.00266559 
1.42554e-06 
-0.00023864 
-0.00017884 
-8.43981e-05 
-2.36186e-06 
-0.00814685 
-9.42247e-06 
-5.36862e-05 
-5.07821e-05 
-0.000123753 
-0.00855964 
-5.27441e-05 
-0.0116688 
-0.0281672 
-0.00418272 
-0.0212822 
-0.00982646 
-0.0065222 
-0.00527395 
-0.00707985 
-0.00194976 
-0.00401184 
-0.00547089 
-0.00396213 
-0.0097577 
-0.00553849 
-0.0119894 
-0.0129311 
-0.0139581 
-0.0179147 
-0.0255597 
-0.0109581 
-0.0193229 
-0.006275 
-0.00507978 
-0.0213473 
-0.0243803 
-0.0171415 
-0.0145199 
-0.0240639 
-0.00457451 
-0.0186115 
-5.43182e-05 
-7.78218e-05 
-9.14502e-05 
-9.71915e-05 
-4.26021e-05 
-7.95874e-05 
-6.39143e-05 
-6.1071e-05 
-3.89832e-05 
-0.000114811 
-0.000116034 
-6.32453e-05 
-0.00011181 
-5.50587e-05 
-4.63947e-05 
-9.65942e-05 
-4.55015e-05 
-0.000137293 
-7.746e-05 
-7.46939e-05 
-7.78697e-05 
-8.20443e-05 
-0.000127541 
-4.38387e-05 
-0.000121026 
-3.86402e-05 
-6.0287e-05 
-0.000140017 
-0.000122264 
-3.73849e-05 
-0.000130308 
-4.14863e-05 
-0.000129793 
-0.000162439 
-0.000140184 
-2.59206e-05 
-5.03537e-05 
-2.3549e-05 
-0.000101244 
-2.40038e-05 
-3.25607e-05 
-0.000141052 
-0.000138218 
-1.55369e-06 
-1.1899e-06 
3.75143e-07 
-3.79374e-05 
-2.00345e-06 
-2.9383e-05 
-2.25056e-07 
-4.43483e-07 
-4.23565e-07 
-5.60728e-07 
-1.0559e-06 
5.86076e-07 
-3.86085e-05 
-1.38138e-06 
-1.69097e-06 
-1.94282e-06 
-1.6142e-06 
-2.33012e-05 
-0.00651029 
-0.00530509 
3.79987e-05 
-4.24908e-05 
-0.0121902 
-2.34737e-05 
-0.00194266 
1.29458e-05 
-1.08336e-05 
-6.73671e-06 
-0.00347045 
-0.000125636 
-3.32149e-05 
-2.71458e-05 
-5.00114e-05 
-0.00381725 
1.46569e-05 
-9.98738e-06 
-8.99327e-06 
-0.00412229 
-6.4293e-05 
-1.10137e-06 
-2.73762e-05 
-6.32801e-07 
-1.44993e-06 
-1.66239e-06 
2.32524e-08 
-3.08995e-07 
-3.13473e-05 
-7.04847e-07 
-1.25833e-06 
-2.33502e-06 
-9.84289e-07 
-2.64191e-07 
-2.12425e-05 
-8.96506e-07 
-2.91984e-06 
-4.33206e-06 
-0.00147361 
-0.0104994 
-0.000103246 
-4.58594e-05 
-0.00308375 
-3.06328e-05 
-0.00386684 
-7.70136e-05 
-8.78341e-05 
-5.25151e-05 
-0.00603143 
-2.06737e-05 
-0.00328245 
-0.000161531 
-2.7579e-05 
-0.00282245 
-1.98486e-05 
-0.000232672 
-0.00010267 
-5.59034e-06 
-0.00435869 
-2.98767e-05 
-2.93377e-05 
0.00137425 
-0.00143497 
-2.22153e-06 
-2.51427e-06 
-3.26123e-06 
-2.07004e-06 
-1.54455e-06 
-1.66799e-06 
-3.01139e-06 
-1.64233e-05 
-2.93885e-06 
-3.58634e-05 
-1.76984e-06 
-2.70177e-05 
-2.42622e-06 
-1.89524e-06 
-9.48044e-07 
-2.91799e-06 
-2.4715e-06 
1.00814e-05 
2.94438e-05 
0.00166848 
-1.09265e-05 
0.00191336 
2.33491e-06 
-8.11012e-06 
-3.97085e-05 
-0.00169082 
-0.00204725 
-2.29532e-05 
-3.55495e-05 
-0.000114436 
-2.49192e-05 
-0.00232531 
-2.26312e-05 
-1.27242e-05 
-8.74121e-05 
-5.63233e-05 
-2.08603e-05 
-0.00725386 
-0.00130695 
-2.28579e-06 
-2.10026e-06 
-1.05353e-06 
1.171e-06 
7.7194e-07 
-1.45435e-06 
-6.04917e-06 
1.29334e-07 
-7.15581e-07 
-1.87485e-06 
-4.45035e-06 
3.81571e-06 
1.34204e-06 
-1.10447e-05 
-1.01368e-06 
-0.000159102 
-4.36509e-05 
-2.42741e-05 
-0.00283017 
-0.000290875 
-3.07887e-05 
7.32282e-06 
-0.000321434 
-0.000197829 
-1.35677e-05 
-4.30321e-05 
-0.0002136 
-0.00438855 
-7.93248e-05 
-1.79854e-05 
-0.0001925 
-0.0171151 
-0.00944633 
-0.0131737 
-0.0125093 
-0.00964845 
-0.0174317 
-0.00682743 
-0.0158118 
-0.020657 
-0.020276 
-0.0234287 
-0.0316205 
-0.0269767 
0.00250933 
0.00297313 
-0.00296461 
-0.00646478 
-0.0185308 
-0.0149188 
-0.00560653 
-0.00930711 
-0.0134245 
-0.01021 
-0.0176771 
-0.010646 
-0.0111785 
-0.0101674 
-0.018187 
-0.0368455 
-0.0258123 
ITEM: TIMESTEP
5600000
ITEM: NUMBER OF ATOMS
896
ITEM: BOX BOUNDS pp pp ff
-1.7300000000000001e+01 1.6899999999999999e+01
-1.8300000000000001e+01 1.7800000000000001e+01
-5.0000000000000000e+01 5.0000000000000000e+01
ITEM: ATOMS q 
-2.69658e-05 
-7.22987e-05 
-1.83404e-05 
-1.90717e-05 
-0.000114059 
-3.23344e-05 
-9.58384e-05 
-5.62249e-05 
-9.65013e-05 
-9.31297e-05 
-2.08151e-05 
-4.01314e-05 
-5.51167e-05 
-7.67485e-05 
-3.40725e-05 
-3.77615e-05 
-3.82482e-05 
-9.73525e-05 
-9.03899e-05 
-4.02283e-05 
-3.09836e-05 
-0.000121752 
-4.74498e-05 
-4.17257e-05 
-8.61673e-05 
-3.96916e-05 
-0.000109974 
-4.05963e-05 
-6.35775e-05 
-0.000108669 
-3.82647e-05 
-3.86573e-05 
-0.000105802 
-9.12613e-05 
-2.64719e-05 
-3.02427e-05 
-3.18779e-05 
-4.17376e-05 
-4.74787e-05 
-7.91844e-05 
-5.81127e-05 
-3.24411e-05 
-1.10943e-05 
-1.42311e-06 
-1.82185e-06 
-1.85407e-06 
-1.44835e-06 
-1.23234e-06 
-1.80335e-06 
-6.97429e-07 
-2.11031e-06 
-2.1949e-06 
-1.1002e-05 
-1.33572e-06 
-1.21257e-05 
-6.59956e-07 
-1.48238e-06 
-1.39272e-06 
-1.41242e-06 
-2.20566e-05 
-0.000293038 
-6.50216e-06 
-0.00105639 
-8.72033e-05 
-0.000164619 
-3.02454e-05 
-0.00521208 
-4.94785e-05 
-0.0030145 
-0.00013398 
-1.03068e-05 
-4.04466e-05 
-0.00109769 
-3.99905e-06 
-0.0040068 
-4.81752e-05 
-1.72958e-05 
-0.0001069 
-1.54201e-05 
-0.00217704 
-0.00610029 
-7.0815e-07 
-4.40001e-07 
-4.1727e-07 
-4.50188e-07 
-6.9508e-07 
1.29171e-06 
-3.08289e-05 
-2.12248e-06 
-1.56381e-05 
-1.25479e-06 
-2.08724e-05 
-1.4874e-06 
-2.48801e-06 
-1.77056e-06 
-2.23941e-06 
-7.25288e-07 
-2.378e-05 
-1.77306e-06 
-0.000173657 
6.68737e-06 
-7.40884e-05 
-5.90359e-05 
-0.00493124 
8.01752e-06 
-0.00134353 
-5.57737e-05 
-7.4543e-05 
-4.95117e-05 
-5.91491e-06 
-0.00237139 
-8.12926e-06 
-3.03659e-06 
-0.00156974 
-2.73705e-05 
-1.3227e-05 
1.10834e-05 
-0.0144664 
-0.0118311 
-2.73094e-06 
-2.12044e-06 
-1.59081e-05 
-4.14085e-07 
-1.0897e-06 
-2.67645e-06 
-2.77308e-06 
-3.16727e-06 
-2.00578e-05 
-2.23095e-07 
-8.04527e-07 
-1.70981e-05 
-5.43855e-07 
-5.03437e-07 
-4.71301e-06 
-2.62221e-05 
-1.8714e-06 
-2.2711e-06 
-0.00192088 
-0.00115288 
-4.13407e-05 
-6.42525e-05 
-0.00662514 
-2.39699e-05 
-0.00525738 
-1.17345e-05 
-4.10537e-05 
-0.000108567 
0.00250416 
1.45948e-05 
-3.82515e-05 
-9.2209e-05 
-6.7306e-05 
-0.00658767 
-6.28923e-06 
4.50199e-05 
-7.77351e-06 
0.004562 
-2.20084e-05 
-1.66269e-06 
-2.09651e-05 
-2.87335e-06 
-3.10571e-06 
-1.05526e-06 