ITEM: TIMESTEP
5000000
ITEM: NUMBER OF ATOMS
896
ITEM: BOX BOUNDS pp pp ff
-1.7300000000000001e+01 1.6899999999999999e+01
-1.8300000000000001e+01 1.7800000000000001e+01
-5.0000000000000000e+01 5.0000000000000000e+01
ITEM: ATOMS q 
0 
0 
0 
0 
0 
0 
0 
0 
0 
0 
0 
0 
0 
0 
0 
0 
0 
0 
0 
0 
0 
0 
0 
0 
0 
0 
0 
0 
0 
0 
0 
0 
0 
0 
0 
0 
0 
0 
0 
0 
0 
0 
0 
0 
0 
0 
0 
0 
0 
0 
0 
0 
0 
0 
0 
0 
0 
0 
0 
0 
0 
0 
0 
0 
0 
0 
0 
0 
0 
0 
0 
0 
0 
0 
0 
0 
0 
0 
0 
0 
0 
0 
0 
0 
0 
0 
0 
0 
0 
0 
0 
0 
0 
0 
0 
0 
0 
0 
0 
0 
0 
0 
0 
0 
0 
0 
0 
0 
0 
0 
0 
0 
0 
0 
0 
0 
0 
0 
0 
0 
0 
0 
0 
0 
0 
0 
0 
0 
0 
0 
0 
0 
0 
0 
0 
0 
0 
0 
0 
0 
0 
0 
0 
0 
0 
0 
0 
0 
0 
0 
0 
0 
0 
0 
0 
0 
0 
0 
0 
0 
0 
0 
0 
0 
0 
0 
0 
0 
0 
0 
0 
0 
0 
0 
0 
0 
0 
0 
0 
0 
0 
0 
0 
0 
0 
0 
0 
0 
0 
0 
0 
0 
0 
0 
0 
0 
0 
0 
0 
0 
0 
0 
0 
0 
0 
0 
0 
0 
0 
0 
0 
0 
0 
0 
0 
0 
0 
0 
0 
0 
0 
0 
0 
0 
0 
0 
0 
0 
0 
0 
0 
0 
0 
0 
0 
0 
0 
0 
0 
0 
0 
0 
0 
0 
0 
0 
0 
0 
0 
0 
0 
0 
0 
0 
0 
0 
0 
0 
0 
0 
0 
0 
0 
0 
0 
0 
0 
0 
0 
0 
0 
0 
0 
0 
0 
0 
0 
0 
0 
0 
0 
0 
0 
0 
0 
0 
0 
0 
0 
0 
0 
0 
0 
0 
0 
0 
0 
0 
0 
0 
0 
0 
0 
0 
0 
0 
0 
0 
0 
0 
0 
0 
0 
0 
0 
0 
0 
0 
0 
0 
0 
0 
0 
0 
0 
0 
0 
0 
0 
0 
0 
0 
0 
0 
0 
0 
0 
0 
0 
0 
0 
0 
0 
0 
0 
0 
0 
0 
0 
0 
0 
0 
0 
0 
0 
0 
0 
0 
0 
0 
0 
0 
0 
0 
0 
0 
0 
0 
0 
0 
0 
0 
0 
0 
0 
0 
0 
0 
0 
0 
0 
0 
0 
0 
0 
0 
0 
0 
0 
0 
0 
0 
0 
0 
0 
0 
0 
0 
0 
0 
0 
0 
0 
0 
0 
0 
0 
0 
0 
0 
0 
0 
0 
0 
0 
0 
0 
0 
0 
0 
0 
0 
0 
0 
0 
0 
0 
0 
0 
0 
0 
0 
0 
0 
0 
0 
0 
0 
0 
0 
0 
0 
0 
0 
0 
0 
0 
0 
0 
0 
0 
0 
0 
0 
0 
0 
0 
0 
0 
0 
0 
0 
0 
0 
0 
0 
0 
0 
0 
0 
0 
0 
0 
0 
0 
0 
0 
0 
0 
0 
0 
0 
0 
0 
0 
0 
0 
0 
0 
0 
0 
0 
0 
0 
0 
0 
0 
0 
0 
0 
0 
0 
0 
0 
0 
0 
0 
0 
0 
0 
0 
0 
0 
0 
0 
0 
0 
0 
0 
0 
0 
0 
0 
0 
0 
0 
0 
0 
0 
0 
0 
0 
0 
0 
0 
0 
0 
0 
0 
0 
0 
0 
0 
0 
0 
0 
0 
0 
0 
0 
0 
0 
0 
0 
0 
0 
0 
0 
0 
0 
0 
0 
0 
0 
0 
0 
0 
0 
0 
0 
0 
0 
0 
0 
0 
0 
0 
0 
0 
0 
0 
0 
0 
0 
0 
0 
0 
0 
0 
0 
0 
0 
0 
0 
0 
0 
0 
0 
0 
0 
0 
0 
0 
0 
0 
0 
0 
0 
0 
0 
0 
0 
0 
0 
0 
0 
0 
0 
0 
0 
0 
0 
0 
0 
0 
0 
0 
0 
0 
0 
0 
0 
0 
0 
0 
0 
0 
0 
0 
0 
0 
0 
0 
0 
0 
0 
0 
0 
0 
0 
0 
0 
0 
0 
0 
0 
0 
0 
0 
0 
0 
0 
0 
0 
0 
0 
0 
0 
0 
0 
0 
0 
0 
0 
0 
0 
0 
0 
0 
0 
0 
0 
0 
0 
0 
0 
0 
0 
0 
0 
0 
0 
0 
0 
0 
0 
0 
0 
0 
0 
0 
0 
0 
0 
0 
0 
0 
0 
0 
0 
0 
0 
0 
0 
0 
0 
0 
0 
0 
0 
0 
0 
0 
0 
0 
0 
0 
0 
0 
0 
0 
0 
0 
0 
0 
0 
0 
0 
0 
0 
0 
0 
0 
0 
0 
0 
0 
0 
0 
0 
0 
0 
0 
0 
0 
0 
0 
0 
0 
0 
0 
0 
0 
0 
0 
0 
0 
0 
0 
0 
0 
0 
0 
0 
0 
0 
0 
0 
0 
0 
0 
0 
0 
0 
0 
0 
0 
0 
0 
0 
0 
0 
0 
0 
0 
0 
0 
0 
0 
0 
0 
0 
0 
0 
0 
0 
0 
0 
0 
0 
0 
0 
0 
0 
0 
0 
0 
0 
0 
0 
0 
0 
0 
0 
0 
0 
0 
0 
0 
0 
0 
0 
0 
0 
0 
0 
0 
0 
0 
0 
0 
0 
0 
0 
0 
0 
0 
0 
0 
0 
0 
0 
0 
0 
0 
0 
0 
0 
0 
0 
0 
0 
0 
0 
0 
0 
0 
0 
0 
0 
0 
0 
0 
0 
0 
0 
0 
0 
0 
0 
0 
0 
0 
0 
0 
0 
0 
0 
0 
0 
0 
0 
0 
0 
0 
0 
ITEM: TIMESTEP
5200000
ITEM: NUMBER OF ATOMS
896
ITEM: BOX BOUNDS pp pp ff
-1.7300000000000001e+01 1.6899999999999999e+01
-1.8300000000000001e+01 1.7800000000000001e+01
-5.0000000000000000e+01 5.0000000000000000e+01
ITEM: ATOMS q 
0.0528239 
0.0241188 
0.0370588 
0.0186953 
0.0497232 
0.0591658 
0.0404679 
0.0696351 
0.0408331 
0.0600349 
0.0445792 
0.0281239 
0.0321991 
0.0673792 
0.0332349 
0.00881465 
0.0203299 
0.0117423 
0.0371931 
0.0811504 
0.0541373 
0.0433238 
0.0590293 
0.0265566 
0.041908 
0.0474752 
0.0578357 
0.0362191 
9.16492e-05 
0.0140307 
0.000393581 
7.92129e-05 
0.00685734 
5.33146e-05 
0.000361923 
0.000243903 
0.000209299 
0.000626182 
0.000567028 
0.00381505 
9.33522e-05 
0.003658 
9.39029e-05 
0.000117165 
0.000284918 
6.89494e-05 
0.0154435 
-3.26879e-06 
1.21324e-05 
-3.84552e-06 
-1.01988e-06 
1.24153e-06 
-1.92784e-06 
3.42571e-08 
1.51621e-05 
-6.33108e-07 
-5.44005e-06 
-1.22094e-06 
-8.75009e-07 
1.15784e-05 
-1.53861e-06 
-1.20091e-06 
1.39545e-06 
-2.18684e-06 
0.00882381 
6.88861e-05 
0.000110346 
8.44733e-05 
-8.95487e-06 
0.0144758 
0.000107715 
1.6147e-05 
0.0208094 
0.000183139 
0.00842866 
0.00018642 
0.00814638 
0.000157047 
0.000494061 
0.000127042 
0.00014147 
0.0150038 
5.40658e-05 
0.010755 
0.000128645 
7.96551e-07 
3.15758e-06 
2.32329e-06 
-7.39843e-08 
2.84335e-05 
-3.34582e-07 
2.37672e-05 
-2.43417e-06 
-5.94452e-07 
-2.02178e-07 
-2.39335e-06 
2.34292e-05 
-2.55678e-06 
-1.27504e-06 
1.40236e-07 
-2.29292e-06 
-3.83651e-06 
0.0217724 
0.0175261 
3.06718e-05 
9.15757e-05 
0.000407656 
0.000350722 
-7.66614e-06 
3.0996e-05 
0.000417943 
0.000156541 
0.0140134 
5.0667e-05 
0.00398719 
0.000190463 
0.00815327 
0.000166653 
0.000343307 
7.89645e-06 
0.0359601 
2.38239e-05 
0.000695925 
0.00748244 
0.0233172 
3.56105e-06 
1.11816e-06 
1.71412e-05 
5.45884e-07 
1.23311e-05 
9.11016e-08 
-9.86704e-07 
1.79881e-06 
1.7895e-05 
-2.18579e-06 
5.26087e-07 
9.75493e-08 
-3.3106e-06 
2.38608e-05 
-6.1018e-07 
-2.62768e-06 
-6.84615e-06 
2.68184e-05 
7.90316e-07 
-6.23751e-07 
2.56349e-05 
-1.05842e-06 
-7.72125e-07 
1.06438e-06 
8.99512e-05 
0.000172552 
0.000180501 
7.59268e-05 
0.01723 
1.27273e-05 
0.000164884 
0.0156786 
1.23112e-05 
7.12858e-05 
0.0126487 
-5.29571e-05 
0.0209336 
-6.86842e-05 
5.83898e-05 
3.92751e-05 
0.0109468 
4.7117e-06 
0.0172253 
-6.85474e-06 
0.010596 
0.0143772 
-4.65873e-07 
-3.38934e-06 
4.24973e-07 
-4.50125e-07 
-3.90182e-06 
2.64135e-05 
-2.19026e-06 
-8.46349e-07 
-7.01336e-06 
-1.451e-06 
2.83321e-05 
6.7768e-07 
2.6302e-05 
8.9662e-05 
1.61922e-05 
2.1174e-05 
1.62225e-05 
2.94928e-05 
7.75665e-05 
0.000102626 
9.27151e-05 
9.53298e-05 
0.000100857 
4.38988e-05 
9.67376e-05 
9.0652e-05 
5.81541e-05 
6.52291e-05 
9.62765e-05 
4.99102e-05 
3.26699e-05 
8.62208e-05 
3.17842e-05 
8.45287e-05 
4.44139e-05 
3.54111e-05 
9.11876e-05 
7.53124e-05 
0.000103147 
5.18503e-05 
6.49245e-05 
3.66072e-05 
6.67994e-05 
7.4683e-05 
5.05463e-05 
9.1908e-05 
4.06387e-05 
4.3736e-05 
4.80106e-05 
5.76451e-05 
5.03236e-05 
5.00219e-05 
5.37028e-05 
0.0242933 
0.0579387 
0.0460069 
0.0629749 
0.0286641 
0.0564031 
0.0317318 
0.0294347 
0.0100961 
0.0625621 
0.047874 
0.0338598 
0.028548 
0.0134228 
0.0476988 
0.0422435 
0.0540338 
0.0410446 
0.0392728 
0.0444017 
0.0515637 
0.0239145 
0.0224573 
0.0417518 
0.0380081 
0.0177987 
0.0261703 
0.0182454 
0.0311616 
0.0151082 
7.79964e-05 
4.48288e-05 
2.35408e-05 
0.0137992 
0.000318408 
0.000153353 
1.82179e-05 
-3.71169e-06 
0.0167661 
0.0117546 
0.000119022 
8.69809e-05 
2.66593e-05 
0.0112664 
0.000108334 
0.000465147 
4.24648e-05 
5.97234e-06 
0.0131913 
0.00644763 
0.0105613 
-1.29194e-07 
-2.31269e-06 
-1.38726e-06 
-4.0812e-06 
1.93446e-05 
-5.38731e-06 
2.71099e-05 
-2.03524e-06 
-2.86067e-07 
1.46974e-06 
-7.27479e-07 
-1.55431e-07 
6.78366e-08 
1.64998e-05 
-1.47655e-06 
5.81655e-06 
2.19084e-05 
9.0006e-07 
-7.10339e-05 
-1.10671e-05 
-8.03383e-05 
-9.22113e-05 
0.0169606 
-0.000113787 
-5.37612e-05 
-8.45529e-05 
0.000118622 
0.000391987 
-6.83693e-05 
0.00693624 
-2.64639e-05 
-3.79221e-05 
-6.87868e-05 
0.025465 
3.61892e-05 
0.00591134 
0.015327 
1.90768e-06 
-9.95389e-07 
-8.97747e-08 
2.52433e-05 
3.21349e-06 
-1.00777e-06 
1.2978e-06 
7.40935e-07 
3.13934e-05 
-2.42322e-06 
-2.96068e-07 
-1.84291e-07 
2.31182e-05 
-6.59284e-08 
-2.15184e-06 
5.86987e-07 
5.76904e-07 
0.000162836 
3.92099e-05 
0.000319446 
0.000182678 
3.1762e-05 
0.0042412 
0.000130894 
2.16082e-05 
0.0270388 
0.00945178 
3.74423e-05 
0.00429285 
5.73817e-05 
0.000634729 
0.000171256 
0.00955313 
0.000129532 
0.00796252 
8.58963e-05 
0.000369398 
2.4173e-06 
3.51052e-06 
-3.02477e-07 
1.22688e-05 
-2.05837e-06 
1.15489e-05 
-5.78227e-07 
-6.21045e-07 
-3.69417e-06 
1.76933e-06 
-4.12231e-07 
1.21967e-05 
-1.25691e-06 
-9.88519e-09 
1.88941e-06 
-9.07336e-08 
-1.51945e-06 
0.00413417 
0.0116138 
0.0210018 
0.000248676 
-4.75106e-05 
-1.38104e-05 
0.000369287 
0.0137444 
4.66765e-06 
2.99412e-06 
0.0147087 
-6.42042e-07 
0.000370848 
0.000430401 
-3.42234e-05 
0.00357112 
-5.20394e-06 
0.00406314 
7.02144e-06 
8.08127e-05 
9.3578e-06 
-2.82497e-06 
1.88621e-05 
-7.30851e-07 
-3.48142e-06 
2.2906e-05 
-1.78397e-06 
3.23107e-06 
-1.19022e-06 
2.42904e-05 
-1.66529e-07 
-2.42218e-06 
-1.17114e-06 
-2.03591e-06 
1.67397e-06 
-7.9222e-07 
1.7241e-06 
3.0653e-05 
6.85174e-07 
0.0119672 
8.60971e-05 
4.22172e-05 
6.35444e-05 
3.85739e-05 
0.00012273 
4.08337e-05 
0.000108199 
4.19809e-05 
4.647e-05 
0.000108962 
0.000105589 
9.0421e-05 
7.97103e-05 
2.7888e-05 
5.98136e-05 
3.1766e-05 
4.35208e-05 
3.98221e-05 
3.40668e-05 
4.80705e-05 
3.41051e-05 
2.27707e-05 
1.91156e-05 
0.000114211 
9.67881e-05 
3.28051e-05 
5.55159e-05 
9.59887e-05 
7.20043e-05 
2.63177e-05 
2.08622e-05 
9.37331e-05 
3.90921e-05 
3.41836e-05 
3.0656e-05 
3.80779e-05 
9.02865e-05 
5.58875e-05 
4.10429e-05 
7.62001e-05 
4.04278e-05 
9.61398e-05 
0.0560667 
0.0675318 
0.0393667 
0.0451147 
0.0216209 
0.040442 
0.0404958 
0.0345134 
0.0747011 
0.0210098 
0.0812727 
0.0504981 
0.0736056 
0.0431033 
0.0276078 
0.0269223 
0.0643709 
0.0811192 
0.0529028 
0.0503701 
0.0226133 
0.0268787 
0.0331047 
0.0214295 
0.0375757 
0.0480226 
0.0583962 
0.0339322 
0.0262981 
0.0365318 
0.0361793 
0.000145917 
5.65493e-05 
4.65637e-05 
0.00995395 
0.000256751 
0.000385342 
5.83001e-05 
0.000323337 
0.00982308 
0.000176929 
6.89498e-05 
1.21455e-05 
0.0117963 
0.000244369 
0.00848958 
0.000324806 
8.04766e-05 
0.000105086 
0.00910024 
2.3906e-07 
2.76253e-05 
-2.0988e-06 
-3.01364e-06 
-3.09817e-07 
2.11059e-05 
1.34425e-06 
-3.39772e-06 
1.79973e-06 
8.82606e-07 
-6.78465e-07 
-4.37748e-06 
-1.46504e-06 
-2.77473e-06 
-4.47962e-07 
1.37134e-05 
1.10265e-06 
0.00622412 
2.30153e-05 
0.000909209 
0.000231579 
8.72295e-05 
0.000246522 
0.00933666 
0.000604624 
0.000740848 
0.000101333 
0.000797265 
0.011333 
0.000139205 
0.000228848 
8.49978e-05 
0.00123545 
0.000758805 
-1.85773e-05 
-5.49598e-06 
9.66942e-07 
7.36614e-08 
-7.56055e-06 
2.66534e-06 
-4.10097e-06 
7.94239e-06 
-2.10202e-06 
1.00385e-06 
-2.05522e-06 
1.84199e-06 
-1.02014e-05 
-1.19933e-05 
2.49115e-06 
-3.15057e-06 
0.0290468 
0.00660294 
1.66946e-05 
0.000171436 
6.86777e-05 
8.99909e-05 
0.0221681 
0.000269651 
0.000141906 
0.000123087 
0.000336469 
0.0129167 
0.0191006 
-5.4863e-06 
-4.03408e-05 
-2.81359e-06 
0.0072778 
-6.70812e-06 
0.0106644 
3.56432e-05 
5.95611e-06 
0.000324903 
0.0137952 
0.0130864 
-9.5843e-07 
4.76356e-07 
-2.19559e-06 
2.86974e-05 
-3.88857e-06 
-1.20707e-06 
-2.55875e-07 
1.94495e-05 
-4.54585e-06 
-1.05738e-06 
-5.31933e-08 
-1.13246e-06 
2.86877e-05 
-2.49291e-07 
-1.22939e-06 
-1.3692e-06 
2.2362e-05 
-2.02108e-06 
-9.49874e-07 
2.01706e-05 
6.58979e-07 
1.39523e-06 
2.19225e-05 
8.55618e-08 
1.70108e-06 
0.00038398 
0.000111083 
0.008199 
7.85063e-05 
0.000390128 
0.000420038 
0.000146509 
0.017053 
5.06154e-05 
0.000187698 
0.00592488 
5.83859e-05 
0.00687538 
4.02178e-05 
0.000162104 
0.000157357 
0.00363802 
3.35907e-05 
0.00235227 
2.75993e-05 
0.0125833 
0.00544275 
-2.53603e-06 
-3.95358e-06 
1.03131e-06 
6.33247e-07 
1.68838e-05 
1.44805e-06 
5.88574e-07 
6.15824e-07 
-1.14344e-06 
4.00402e-07 
6.08965e-05 
9.38558e-05 
2.84704e-05 
0.000103854 
4.55499e-05 
2.75248e-05 
9.05351e-05 
3.33071e-05 
9.77219e-05 
8.9195e-05 
7.52557e-05 
3.04025e-05 
1.64866e-05 
2.05696e-05 
2.51112e-05 
3.87654e-05 
0.0001207 
0.000104496 
0.000101883 
9.58351e-05 
0.000105289 
1.66498e-05 
5.91556e-05 
3.16947e-05 
5.96112e-05 
6.76018e-05 
4.17724e-05 
4.76224e-05 
7.21765e-05 
3.04074e-05 
4.73441e-05 
8.48973e-05 
0.00010077 
8.63017e-05 
5.52726e-05 
3.26286e-05 
5.88073e-05 
4.68184e-05 
8.50005e-05 
3.43256e-05 
4.16501e-05 
5.89752e-05 
7.18906e-05 
0.0500196 
0.0225173 
0.0348718 
0.0220975 
0.0214376 
0.0150768 
0.0501494 
0.0434615 
0.0261748 
0.0513248 
0.020513 
0.0177574 
0.00734571 
0.0164945 
0.0273888 
0.0510988 
0.0340398 
0.0591235 
0.0253658 
0.035062 
0.0450218 
0.0405836 
0.012017 
0.016106 
0.0138936 
0.0121351 
0.00670912 
0.0188695 
0.0583108 
0.0267687 
-0.000109625 
0.00940965 
-9.79918e-05 
-6.01478e-05 
0.018595 
-1.13339e-05 
5.28393e-05 
-4.63237e-05 
2.91615e-05 
0.0192408 
0.0116756 
-8.39234e-05 
-3.63927e-05 
-6.33272e-05 
0.00610638 
-3.5395e-05 
0.0134754 
3.07757e-06 
3.72673e-05 
-1.7504e-05 
0.00500917 
0.00430276 
-9.43857e-07 
1.21095e-06 
-1.68764e-06 
3.12761e-05 
-6.93967e-07 
-3.41211e-06 
-1.86542e-06 
2.15134e-05 
-3.25013e-08 
-1.35279e-06 
8.47723e-07 
-6.95118e-07 
2.67641e-05 
-1.13862e-06 
-1.74881e-06 
2.05546e-06 
1.85582e-05 
1.17617e-06 
-2.80214e-05 
3.7063e-05 
0.000104192 
2.16541e-05 
0.0454442 
3.53537e-05 
9.99918e-05 
0.0117214 
0.000102712 
-4.7624e-06 
0.0338884 
0.000103338 
1.02816e-05 
-3.45992e-05 
0.006784 
-1.85199e-05 
0.000140914 
0.000407436 
0.00355104 
-3.86968e-07 
-2.99059e-06 
1.87824e-05 
-6.79205e-06 
1.78515e-05 
-2.93603e-06 
-7.8042e-07 
-3.83502e-06 
1.71213e-05 
-3.5598e-07 
1.41399e-05 
8.51514e-07 
-3.95929e-06 
1.40432e-05 
1.15615e-06 
2.73289e-06 
6.66129e-07 
5.94319e-06 
-9.49554e-07 
1.13657e-05 
4.13125e-05 
8.63308e-05 
8.67105e-06 
5.61444e-08 
0.020688 
0.000264269 
4.21102e-05 
0.00968666 
0.000109407 
0.00246406 
6.18697e-05 
0.011397 
0.000278435 
0.0118426 
0.000338291 
7.08142e-05 
4.9544e-05 
0.0110427 
0.000170338 
0.000349791 
-7.14343e-07 
7.03665e-07 
1.25445e-06 
2.61554e-05 
-1.94441e-06 
-6.24958e-07 
-3.57929e-07 
1.0965e-05 
1.60238e-05 
7.46805e-07 
-1.40443e-06 
-4.22744e-06 
4.36963e-07 
-2.46139e-06 
2.97044e-06 
-7.40704e-07 
-1.43772e-07 
0.0171961 
0.0111454 
0.00974014 
2.09679e-06 
0.000136236 
1.88575e-05 
5.03881e-05 
1.27226e-05 
4.15371e-05 
0.0036165 
4.44282e-05 
0.000746437 
0.00241335 
2.58035e-05 
3.71192e-05 
0.00453339 
0.000119592 
0.000186237 
-1.7567e-06 
2.26471e-05 
0.00174083 
0.000112797 
1.73788e-06 
9.03691e-07 
2.42366e-06 
1.26537e-05 
3.05779e-06 
1.96579e-07 
2.26659e-08 
2.81029e-06 
1.67655e-06 
1.20384e-05 
-1.33532e-06 
-2.8147e-06 
2.52288e-06 
2.73113e-06 
7.69225e-07 
2.8054e-05 
6.43673e-05 
6.67137e-05 
3.80083e-05 
4.24263e-05 
8.04385e-05 
4.28655e-05 
0.000102977 
7.00565e-05 
5.36299e-05 
2.14993e-05 
9.6904e-05 
9.54904e-05 
9.3746e-05 
8.70843e-05 
0.000101871 
0.000117284 
2.25568e-05 
5.23733e-05 
5.85542e-05 
4.00594e-05 
9.51397e-05 
9.16218e-05 
2.77908e-05 
3.30429e-05 
9.09748e-05 
2.98382e-05 
0.000113716 
2.96484e-05 
6.78858e-05 
3.99045e-05 
4.40025e-05 
4.7766e-05 
0.000114496 
9.68359e-05 
0.000120649 
9.78073e-05 
4.17671e-05 
2.05591e-05 
2.83312e-05 
3.59683e-05 
ITEM: TIMESTEP
5400000
ITEM: NUMBER OF ATOMS
896
ITEM: BOX BOUNDS pp pp ff
-1.7300000000000001e+01 1.6899999999999999e+01
-1.8300000000000001e+01 1.7800000000000001e+01
-5.0000000000000000e+01 5.0000000000000000e+01
ITEM: ATOMS q 
0.0595759 
0.0236537 
0.0498135 
0.0183979 
0.0528935 
0.0477134 
0.0417721 
0.0415992 
0.034922 
0.0312561 
0.0262024 
0.0106815 
0.0143018 
0.0325099 
0.0205136 
0.0118421 
0.0148438 
0.0526057 
0.0329355 
0.0483183 
0.022744 
0.0303951 
0.0166142 
0.00497274 
0.0565358 
0.0236241 
0.058035 
0.030532 
0.000139829 
0.0229567 
0.000603693 
0.000110667 
0.0100091 
6.1176e-05 
0.000405273 
0.000261924 
0.000175824 
0.000793615 
0.000413721 
0.00387143 
0.000127218 
0.00423407 
6.92009e-05 
9.50751e-05 
0.000211945 
3.51181e-05 
0.0105024 
-7.64079e-06 
1.45022e-05 
-5.16291e-06 
-1.77309e-06 
2.55085e-06 
-2.32946e-06 
-3.5733e-07 
1.6554e-05 
-3.56951e-07 
-4.23549e-06 
1.10366e-06 
-1.87501e-06 
1.3032e-05 
-3.20682e-06 
7.57869e-08 
2.429e-06 
-2.03283e-07 
0.00837986 
5.2802e-05 
8.29535e-05 
7.97034e-05 
-9.66805e-06 
0.0130385 
3.95936e-05 
-9.69463e-06 
0.0119418 
8.84543e-05 
0.00775966 
8.57201e-05 
0.0060854 
6.73381e-05 
0.00016981 
8.35565e-05 
6.71103e-05 
0.0117139 
2.896e-05 
0.00867847 
0.000178494 
1.26629e-06 
3.27247e-06 
2.57015e-06 
-7.5344e-07 
3.0145e-05 
-9.679e-07 
2.44993e-05 
2.67161e-07 
3.16355e-07 
1.9921e-06 
3.94659e-07 
2.40864e-05 
4.54399e-07 
7.50011e-07 
1.17103e-06 
-1.29641e-08 
-2.30426e-06 
0.00568079 
0.0149095 
3.28056e-05 
5.82399e-05 
0.000597261 
0.000266518 
-6.4677e-06 
2.76465e-05 
0.000200467 
0.00011142 
0.00621412 
7.21863e-05 
0.00698244 
2.84634e-05 
0.007318 
0.000147031 
0.000226625 
9.43095e-07 
0.0224452 
2.86715e-05 
0.000267076 
0.00128679 
0.0165571 
-1.54368e-07 
-6.1221e-07 
2.04912e-05 
5.70801e-07 
1.54692e-05 
-2.9161e-06 
-5.25406e-07 
2.36195e-06 
1.95743e-05 
2.86118e-07 
8.00518e-07 
2.87625e-07 
-2.04113e-06 
2.65929e-05 
2.94504e-06 
-1.26709e-06 
-4.81623e-06 
3.00996e-05 
-6.73858e-07 
9.26532e-07 
2.96168e-05 
-1.0236e-06 
-2.69735e-06 
7.65796e-07 
2.4108e-05 
5.40235e-05 
3.84515e-05 
3.35445e-05 
0.00970847 
6.70802e-05 
5.34139e-05 
0.0213365 
1.84265e-05 
0.000108522 
0.00437577 
-4.55561e-05 
0.00776173 
-4.20805e-05 
0.000111582 
-1.11654e-05 
0.030253 
0.000109874 
0.0199506 
3.55585e-05 
0.0190671 
0.0106825 
7.78112e-07 
-1.29219e-06 
8.74671e-07 
-9.58336e-08 
4.84879e-08 
2.88921e-05 
-4.59902e-08 
-2.6894e-06 
-3.06244e-06 
-6.6363e-08 
2.98775e-05 
-1.49385e-06 
2.77171e-05 
9.58478e-05 
1.69413e-05 
2.31591e-05 
1.78128e-05 
3.08949e-05 
8.28444e-05 
0.000111251 
9.99896e-05 
0.000102153 
0.000109164 
3.40017e-05 
5.41741e-05 
4.74942e-05 
0.000104496 
3.5298e-05 
9.87593e-05 
7.04702e-05 
0.0001052 
9.4203e-05 
6.31969e-05 
0.000110598 
3.94517e-05 
6.96773e-05 
9.78874e-05 
5.5764e-05 
8.09605e-05 
3.88622e-05 
4.80817e-05 
8.94221e-05 
5.49247e-05 
5.48916e-05 
4.75337e-05 
5.42233e-05 
7.25394e-05 
6.23868e-05 
5.22483e-05 
5.81874e-05 
4.30518e-05 
9.89089e-05 
8.05755e-05 
0.013342 
0.0518519 
0.0396567 
0.0615944 
0.0230447 
0.0634918 
0.0332206 
0.0480466 
0.0177095 
0.0307991 
0.0378977 
0.0102799 
0.0172154 
0.0207368 
0.055204 
0.0443069 
0.0484986 
0.0398285 
0.0396494 
0.058998 
0.0602456 
0.0341451 
0.039887 
0.0525272 
0.0585849 
0.0219843 
0.0357813 
0.0759962 
0.0236087 
0.0220042 
1.00512e-05 
1.39275e-05 
2.87521e-06 
0.0121005 
0.000365959 
0.000111447 
8.74482e-06 
5.90972e-05 
0.0161402 
0.0105212 
0.000126044 
8.32471e-05 
3.80734e-05 
0.0106603 
9.91845e-05 
0.000488737 
6.40272e-05 
-3.52231e-05 
0.00532801 
0.0064191 
0.0118354 
1.23182e-08 
-2.6682e-06 
-2.51092e-06 
-3.93997e-06 
2.20179e-05 
-5.04305e-06 
2.98913e-05 
-1.26001e-06 
-8.72605e-07 
2.617e-06 
2.00746e-07 
-1.61485e-06 
1.03962e-06 
1.74112e-05 
-3.29013e-07 
1.88661e-06 
2.5328e-05 
5.55599e-07 
-3.53809e-05 
6.9002e-05 
3.3932e-05 
-1.91739e-05 
0.0367104 
-8.99454e-05 
-5.59734e-05 
-6.26227e-05 
0.000102868 
6.1231e-06 
-3.10193e-05 
0.0084961 
-4.78129e-05 
-6.21783e-05 
-8.80758e-05 
0.0209412 
7.3198e-06 
0.0119952 
0.0122425 
-1.34316e-06 
-4.07482e-06 
1.45466e-06 
2.96215e-05 
-5.9604e-07 
-2.05727e-06 
2.08209e-07 
-2.69065e-07 
3.46835e-05 
-2.32858e-06 
-1.74236e-07 
-6.49957e-07 
2.67472e-05 
-1.85714e-06 
-6.01576e-06 
-9.33176e-07 
4.7196e-08 
0.000158015 
3.68129e-05 
0.000325021 
0.000159186 
2.87834e-05 
0.00377521 
0.000128572 
2.20146e-05 
0.0265306 
0.00904877 
4.259e-05 
0.00532254 
7.17968e-05 
0.000696664 
0.000225042 
0.0101807 
0.000133961 
0.0102231 
9.2982e-05 
0.000353963 
2.26928e-06 
2.86392e-06 
-8.38228e-07 
1.33431e-05 
-2.71367e-06 
1.32869e-05 
1.52057e-07 
-1.64899e-06 
-3.91508e-06 
1.00258e-06 
-2.80966e-06 
1.39853e-05 
1.95307e-07 
-1.83347e-06 
1.24176e-06 
9.79292e-08 
-1.00193e-06 
0.00649959 
0.0115833 
0.022491 
0.000270184 
2.11087e-05 
-4.01739e-05 
0.000332969 
0.018173 
5.80741e-05 
4.41038e-05 
0.0159642 
-1.70968e-05 
0.000354715 
0.000597587 
-3.66017e-05 
0.0129591 
1.14432e-05 
0.0153637 
0.000186901 
0.00030899 
0.000141272 
-3.93213e-06 
1.9432e-05 
-1.42977e-06 
-6.59386e-06 
2.52326e-05 
-2.24883e-06 
-5.58894e-07 
-1.17542e-06 
2.8433e-05 
-3.80953e-06 
-3.16324e-06 
-1.73228e-06 
-5.66743e-07 
-1.74723e-06 
-1.47632e-06 
-2.11428e-07 
3.50776e-05 
-1.69176e-07 
0.0188434 
9.20357e-05 
4.54181e-05 
6.83208e-05 
4.37323e-05 
0.000133496 
4.36493e-05 
0.00011483 
4.45778e-05 
5.04323e-05 
0.00011846 
5.41223e-05 
3.80743e-05 
4.77149e-05 
4.30087e-05 
3.78672e-05 
0.000111281 
9.62177e-05 
8.60696e-05 
3.26418e-05 
6.58085e-05 
3.49831e-05 
2.12589e-05 
3.57593e-05 
0.000101244 
6.05466e-05 
0.000103938 
2.22352e-05 
7.78695e-05 
2.463e-05 
0.000104007 
3.04624e-05 
0.000123451 
4.19914e-05 
0.000102912 
6.02585e-05 
3.68577e-05 
4.45613e-05 
4.1712e-05 
9.65913e-05 
3.42922e-05 
4.42136e-05 
8.29584e-05 
0.0254771 
0.0320767 
0.0105854 
0.0684391 
0.0265347 
0.0495225 
0.0331741 
0.0310488 
0.0396896 
0.0328614 
0.0633592 
0.035959 
0.0599192 
0.0143972 
0.0452814 
0.0136261 
0.0651526 
0.0131498 
0.0502446 
0.0349435 
0.0407702 
0.00999793 
0.00872785 
0.0133431 
0.00916569 
0.0294422 
0.0495773 
0.0349261 
0.0351536 
0.0449811 
0.0519946 
8.28875e-05 
2.41075e-05 
8.65508e-06 
0.00890049 
0.000219025 
0.000294756 
3.70243e-05 
0.000101219 
0.0174223 
0.000330734 
0.000115253 
6.83771e-05 
0.0231318 
0.000382151 
0.00321817 
0.000381691 
0.000108059 
7.63768e-05 
0.0106766 
2.10307e-06 
2.80722e-05 
-9.6672e-07 
-2.41017e-06 
1.4581e-07 
2.30461e-05 
1.90582e-06 
-2.86096e-06 
2.09799e-06 
-2.40458e-06 
-4.29867e-07 
-2.63691e-06 
-2.50135e-06 
-2.41715e-06 
-1.00801e-06 
1.33797e-05 
4.4557e-07 
0.00958768 
2.48687e-05 
0.000514265 
9.49153e-05 
3.56898e-05 
0.000146283 
0.00915545 
0.000506014 
0.00115065 
0.000129907 
0.000681862 
0.00802281 
9.29992e-05 
0.000113726 
0.000113666 
0.000273247 
0.000663343 
-9.63672e-06 
6.10347e-07 
4.94793e-07 
-5.09563e-07 
-1.31184e-05 
3.35551e-06 
-6.4766e-06 
1.08694e-05 
-3.53442e-06 
9.67258e-07 
-9.33727e-07 
2.62356e-06 
-3.69408e-06 
-3.08217e-06 
3.79544e-06 
5.86473e-07 
0.00899533 
0.00225567 
1.72462e-05 
8.0362e-05 
5.19045e-05 
4.67028e-05 
0.00888118 
0.000101134 
8.22171e-05 
7.52363e-05 
0.000260884 
0.0167305 
0.022428 
0.000122964 
-1.18716e-05 
-2.52994e-05 
0.00335917 
-3.58691e-05 
0.00713323 
4.22503e-06 
6.77142e-06 
0.000258318 
0.00769313 
0.004511 
-1.45467e-06 
-2.33014e-06 
-3.63632e-07 
3.11079e-05 
-2.86729e-06 
-1.69809e-06 
1.61364e-06 
1.96622e-05 
-1.98592e-06 
1.68357e-06 
1.98817e-07 
3.14978e-07 
3.03667e-05 
1.41465e-06 
-1.68849e-06 
2.37054e-06 
2.1477e-05 
1.42126e-08 
-2.39269e-06 
2.11339e-05 
2.47182e-07 
6.20985e-07 
2.42509e-05 
-4.79949e-07 
2.65576e-07 
0.000344112 
7.16995e-05 
0.00641282 
4.6573e-05 
0.000124902 
0.000272034 
4.58717e-05 
0.00698975 
1.91407e-05 
0.000244133 
0.00431529 
4.95126e-05 
0.00785015 
0.000149871 
0.000176035 
0.000216376 
0.00489086 
3.00123e-05 
0.00442537 
4.17027e-05 
0.0171459 
0.0011305 
-2.3827e-06 
-1.22653e-06 
1.52641e-06 
3.68948e-07 
1.74489e-05 
-3.19757e-07 
3.20457e-06 
1.2487e-06 
4.29531e-08 
8.86305e-07 
6.60102e-05 
0.000102152 
3.16467e-05 
0.000113234 
4.92119e-05 
3.03408e-05 
9.83112e-05 
3.61866e-05 
0.000105485 
9.72093e-05 
0.000109315 
0.000104187 
2.11574e-05 
0.000112503 
0.000113076 
0.000130673 
1.9235e-05 
8.10917e-05 
1.83448e-05 
4.11863e-05 
3.31214e-05 
2.76786e-05 
3.32787e-05 
9.19465e-05 
6.37376e-05 
3.17799e-05 
5.04e-05 
6.47633e-05 
7.3541e-05 
7.84905e-05 
4.44608e-05 
5.19548e-05 
3.65557e-05 
6.3743e-05 
9.39098e-05 
4.52461e-05 
5.03685e-05 
0.000110041 
3.56342e-05 
7.85151e-05 
5.94747e-05 
9.20168e-05 
6.28403e-05 
0.017662 
0.0318068 
0.0257207 
0.0573968 
0.033861 
0.0555453 
0.0292999 
0.0313052 
0.0268876 
0.0166972 
0.0111458 
0.0164701 
0.0209452 
0.0215012 
0.0426214 
0.021886 
0.00967842 
0.0672591 
0.0525733 
0.0507747 
0.0442907 
0.0638132 
0.0159771 
0.0323906 
0.0135965 
0.0158929 
0.00676762 
0.0203515 
0.054417 
0.0164621 
-9.62987e-05 
0.0130542 
-7.47163e-05 
-5.64941e-05 
0.0103138 
-5.303e-05 
-6.76963e-06 
-6.66466e-05 
7.38549e-05 
0.0108779 
0.0166802 
-5.47719e-05 
7.9731e-05 
-6.05732e-05 
0.0150593 
-1.73596e-05 
0.0113516 
9.03156e-05 
0.000172127 
-1.67915e-05 
0.012405 
0.0121382 
2.08168e-07 
1.45281e-06 
1.36607e-06 
3.22134e-05 
-4.50853e-07 
-1.1209e-07 
-1.39675e-06 
2.27237e-05 
1.43559e-06 
-5.52854e-06 
-1.2509e-07 
1.68868e-07 
2.93591e-05 
-3.35725e-06 
-4.26496e-06 
7.54489e-07 
2.13684e-05 
-2.48221e-07 
4.70302e-06 
0.00010416 
3.13375e-05 
6.33803e-05 
0.0250883 
-3.13329e-05 
0.000105271 
0.00438905 
5.35629e-05 
1.30547e-05 
0.0131568 
0.000184042 
5.07117e-05 
-3.13213e-05 
0.00422505 
-9.87068e-06 
0.000102925 
0.000541872 
0.00425229 
1.25535e-06 
-2.09552e-06 
2.05994e-05 
-1.59609e-06 
1.72742e-05 
7.5875e-07 
3.21242e-07 
-9.30544e-07 
1.82658e-05 
4.12931e-07 
1.33985e-05 
1.63159e-06 
-2.24577e-06 
1.36034e-05 
1.59428e-06 
3.00334e-06 
8.32683e-07 
4.0195e-06 
1.65581e-06 
1.06366e-05 
5.89636e-05 
6.61846e-05 
3.15884e-05 
1.98115e-05 
0.0125067 
7.69236e-05 
2.17057e-05 
0.0125558 
0.00016513 
0.00588095 
4.17758e-05 
0.0151608 
0.000331318 
0.00972794 
0.000403015 
0.000115683 
9.59743e-05 
0.0265022 
0.000344184 
0.000619127 
-1.75068e-06 
3.76929e-07 
8.31028e-07 
2.83515e-05 
-1.15977e-06 
-2.76481e-06 
7.08164e-07 
1.23356e-05 
1.75272e-05 
-2.26693e-06 
-1.38748e-06 
-4.34283e-06 
1.48615e-06 
-3.48894e-07 
-1.85542e-06 
2.51132e-07 
5.38858e-07 
0.0166725 
0.019271 
0.00362846 
3.09445e-06 
0.000169809 
2.60888e-05 
6.21442e-05 
7.54724e-06 
7.27986e-05 
0.00446478 
5.30217e-05 
0.00067564 
0.00530188 
5.85173e-05 
4.98216e-05 
0.00383507 
8.70576e-05 
0.000229311 
-3.99322e-06 
2.85554e-05 
0.00216982 
0.000163627 
1.61031e-06 
9.70166e-07 
1.15392e-06 
1.33718e-05 
2.36578e-06 
1.14851e-06 
1.199e-06 
2.82707e-06 
2.28845e-06 
1.2183e-05 
-7.92158e-07 
7.49831e-07 
1.96365e-06 
1.74592e-06 
-9.46925e-07 
3.02671e-05 
6.87017e-05 
7.2478e-05 
4.09765e-05 
4.57778e-05 
8.58636e-05 
4.63589e-05 
0.000110477 
7.58714e-05 
5.70029e-05 
0.000127364 
2.40835e-05 
0.00011017 
9.48028e-05 
0.000104779 
2.25364e-05 
0.000102611 
0.000105618 
3.18094e-05 
3.12811e-05 
3.49344e-05 
2.90044e-05 
9.84056e-05 
6.27972e-05 
9.96869e-05 
5.66626e-05 
0.000101919 
0.000122322 
4.25945e-05 
4.32142e-05 
2.24729e-05 
7.28639e-05 
3.04106e-05 
0.000123243 
3.90038e-05 
0.000104536 
4.75566e-05 
0.000130768 
5.19379e-05 
4.57559e-05 
0.000103529 
ITEM: TIMESTEP
5600000
ITEM: NUMBER OF ATOMS
896
ITEM: BOX BOUNDS pp pp ff
-1.7300000000000001e+01 1.6899999999999999e+01
-1.8300000000000001e+01 1.7800000000000001e+01
-5.0000000000000000e+01 5.0000000000000000e+01
ITEM: ATOMS q 
0.0651245 
0.0409094 
0.0523059 
0.0241634 
0.0433662 
0.026212 
0.0565361 
0.0213215 
0.0673429 
0.0240096 
0.0299459 
0.0113614 
0.00946526 
0.0386096 
0.0207456 
0.0215923 
0.018311 
0.0552055 
0.0337079 
0.0399624 
0.0172489 
0.0179424 
0.0483175 
0.0106097 
0.0624087 
0.0176745 
0.0311907 
0.010257 
0.000113972 
0.0208496 
0.000555939 
0.000114464 
0.00838348 
7.92007e-05 
0.000502398 
0.000306223 
0.00026334 
0.000922586 
0.000431419 
0.00364934 
0.000113497 
0.00408979 
3.57493e-05 
7.99951e-05 
0.000122397 
4.57071e-05 
0.00417654 
-1.05124e-05 
-4.08418e-06 
-7.81037e-06 
-5.01538e-06 
-1.50607e-06 
-8.48575e-06 
-1.90508e-06 
-7.40757e-06 
-4.04302e-06 
-7.6991e-06 
-2.16324e-06 
-3.05956e-06 
-6.22598e-06 
-4.80921e-06 
-9.90457e-09 
-1.57825e-06 
-3.34541e-06 
0.00803899 
9.96517e-05 
0.000186469 
0.000124141 
1.02928e-05 
0.0209348 
3.00411e-05 
1.73242e-05 
0.0204948 
0.000193407 
0.00914811 
7.23945e-05 
0.00783777 
4.31376e-05 
0.00015684 
8.88942e-05 
6.91639e-05 
0.0122668 
3.21788e-05 
0.0058276 
0.000153929 
-3.14368e-06 
9.52466e-07 
-3.0961e-06 
-5.48507e-06 
-1.6112e-05 
-1.99357e-06 
-1.29946e-05 
-4.8355e-06 
-4.95531e-06 
-2.58842e-06 
-2.75608e-06 
-1.23473e-05 
-2.41409e-06 
-3.17341e-06 
-2.52686e-06 
-3.03997e-06 
-3.61346e-06 
0.00920188 
0.0106038 
-1.70527e-05 
6.22508e-05 
0.000871925 
0.00032255 
3.60001e-05 
2.51097e-05 
0.000140301 
6.67803e-05 
0.00430048 
0.000139138 
0.0305189 
0.000310856 
0.00832903 
0.000219059 
0.000156406 
1.24059e-06 
0.0121019 
2.54381e-06 
0.000183252 
0.00877369 
0.0087548 
-1.90832e-06 
-3.00636e-06 
-8.85725e-06 
-2.6218e-06 
-7.58679e-06 
-5.76164e-06 
-3.13012e-06 
3.95304e-07 
-9.4716e-06 
-3.6806e-06 
-3.6974e-06 
-5.10252e-06 
-4.77365e-06 
-1.26629e-05 
-2.98734e-06 
-2.18182e-06 
-5.0642e-06 
-1.47862e-05 
-1.90221e-06 
-2.07421e-06 
-1.53822e-05 
-2.49532e-06 
-4.33657e-06 
1.66965e-08 
6.02644e-05 
8.05129e-05 
0.00012698 
2.99452e-05 
0.0188057 
7.56014e-05 
5.34942e-05 
0.0194899 
-7.49552e-06 
1.8006e-05 
0.0117088 
-2.75927e-05 
0.00713617 
-4.91225e-05 
0.000110985 
-7.46533e-05 
0.0230967 
8.40077e-05 
0.0149185 
-1.3044e-05 
0.00626393 
0.0117084 
-2.07125e-06 
-5.29778e-06 
-1.7771e-06 
-4.12973e-06 
-5.76089e-06 
-1.34196e-05 
-2.455e-06 
-4.88057e-06 
-3.64717e-06 
-2.80082e-06 
-1.48462e-05 
-1.56819e-06 
-5.6433e-05 
-5.41042e-05 
-5.87776e-05 
-1.50442e-05 
-5.16639e-05 
-8.64801e-06 
-1.14357e-05 
-9.71851e-06 
-1.63597e-05 
-4.56756e-05 
-6.03098e-05 
-1.75128e-05 
-1.88931e-05 
-5.63405e-05 
-5.02336e-05 
-3.35249e-05 
-3.8052e-05 
-2.86045e-05 
-2.46076e-05 
-5.6654e-05 
-5.35222e-05 
-2.57743e-05 
-5.4061e-05 
-6.00467e-05 
-2.88727e-05 
-2.02308e-05 
-1.96433e-05 
-3.8027e-05 
-4.866e-05 
-4.3514e-05 
-3.90311e-05 
-3.29342e-05 
-2.25762e-05 
-2.77208e-05 
-2.86716e-05 
-2.89254e-05 
-2.47544e-05 
-2.97983e-05 
-4.27732e-05 
-5.36082e-05 
-2.83671e-05 
0.00754613 
0.0100116 
0.0266364 
0.0223671 
0.0121688 
0.042289 
0.0247119 
0.0301053 
0.0106993 
0.039103 
0.0378681 
0.0136623 
0.00916918 
0.0225732 
0.0463578 
0.0515182 
0.0527172 
0.0355381 
0.047166 
0.058532 
0.0670363 
0.02656 
0.049367 
0.0455534 
0.0507853 
0.0239123 
0.0395368 
0.0536117 
0.0426848 
0.0340932 
6.01416e-05 
-7.05002e-07 
-1.53522e-05 
0.00158869 
3.19585e-05 
2.31966e-05 
-6.17894e-05 
-1.17826e-05 
0.00903142 
0.00285813 
2.43326e-05 
3.89155e-05 
1.7418e-05 
0.00707998 
7.51357e-05 
0.000258194 
4.5046e-05 
-3.56477e-05 
0.00551457 
0.00500277 
0.00913188 
-2.94054e-07 
-1.04555e-06 
-7.57127e-07 
-1.65721e-06 
-1.0026e-05 
-4.05405e-06 
-1.51043e-05 
-2.79284e-06 
-2.59506e-06 
-4.02943e-06 
-9.12674e-07 
-2.8242e-06 
-3.95955e-06 
-8.06608e-06 
-3.0044e-06 
7.56792e-07 
-1.23319e-05 