ITEM: TIMESTEP
5800000
ITEM: NUMBER OF ATOMS
8030
ITEM: BOX BOUNDS pp pp ff
-1.8517606659999998e+01 1.7699648337999999e+01
-1.9567289658000000e+01 1.8632104154000000e+01
-5.0000000000000000e+01 5.0000000000000000e+01
ITEM: ATOMS id mol type x y z q 
6145 701 12 -15.8286 -17.0099 -36.4761 -0.0371133 
6146 701 12 -17.0566 -16.3009 -36.4761 -0.0284812 
6147 701 12 -17.0566 -14.8829 -36.4761 -0.00328624 
6148 701 12 -15.8286 -14.1739 -36.4761 -0.000371912 
6149 701 14 -13.3726 -17.0099 -36.4761 -0.00520591 
6150 701 15 -13.3726 -18.1199 -36.4761 -0.0241797 
6151 701 12 -14.6006 -16.3009 -36.4761 -0.00574687 
6152 701 12 -14.6006 -14.8829 -36.4761 -0.000923576 
6153 701 12 -13.3726 -14.1739 -36.4761 -0.000143266 
6155 701 12 -12.1446 -16.3009 -36.4761 -0.0031195 
6156 701 14 -12.1446 -14.8829 -36.4761 -0.000520682 
6205 701 12 -15.8286 -12.7559 -36.4761 0.000292448 
6206 701 12 -17.0566 -12.0469 -36.4761 7.19673e-06 
6207 701 12 -17.0566 -10.6289 -36.4761 0.000657096 
6209 701 12 -13.3726 -12.7559 -36.4761 0.000528315 
6210 701 12 -14.6006 -12.0469 -36.4761 0.000530083 
6211 701 12 -14.6006 -10.6289 -36.4761 0.00048143 
6214 701 12 -12.1446 -12.0469 -36.4761 0.000544457 
6215 701 12 -12.1446 -10.6289 -36.4761 0.000396849 
993 53 3 -16.8398 -18.5945 -33.6418 -0.13 
998 53 6 -15.8318 -18.84 -33.9838 0.21 
989 53 1 -17.9771 -18.9079 -34.3705 0.15 
999 53 7 -17.5122 -19.1064 -36.4752 0.13 
6154 701 12 -10.9166 -17.0099 -36.4761 -0.00684637 
6157 701 12 -10.9166 -14.1739 -36.4761 0.000258301 
6158 701 14 -8.46061 -17.0099 -36.4761 -0.00281478 
6159 701 15 -8.46061 -18.1199 -36.4761 -0.00842808 
6160 701 12 -9.68861 -16.3009 -36.4761 -0.00259021 
6161 701 12 -9.68861 -14.8829 -36.4761 -0.000209881 
6162 701 12 -8.46061 -14.1739 -36.4761 0.000297394 
6163 701 12 -6.00461 -17.0099 -36.4761 -0.00516849 
6164 701 12 -7.23261 -16.3009 -36.4761 -0.00218614 
6165 701 12 -7.23261 -14.8829 -36.4761 -0.000102082 
6166 701 12 -6.00461 -14.1739 -36.4761 0.000403609 
6168 701 12 -4.77661 -16.3009 -36.4761 -0.00181018 
6169 701 12 -4.77661 -14.8829 -36.4761 -4.10752e-06 
6213 701 12 -10.9166 -12.7559 -36.4761 0.000618053 
6217 701 12 -8.46061 -12.7559 -36.4761 0.000699464 
6218 701 12 -9.68861 -12.0469 -36.4761 0.000665208 
6219 701 12 -9.68861 -10.6289 -36.4761 0.000682046 
6221 701 12 -6.00461 -12.7559 -36.4761 0.000878897 
6222 701 12 -7.23261 -12.0469 -36.4761 0.000761971 
6223 701 12 -7.23261 -10.6289 -36.4761 0.00071544 
6226 701 12 -4.77661 -12.0469 -36.4761 0.000777221 
6227 701 12 -4.77661 -10.6289 -36.4761 0.00055762 
7082 701 13 -5.75061 -12.2259 -37.8581 -0.00083561 
6167 701 14 -3.54861 -17.0099 -36.4761 -0.00506662 
6170 701 12 -3.54861 -14.1739 -36.4761 0.000303603 
6171 701 12 -1.09261 -17.0099 -36.4761 -0.00522528 
6172 701 12 -2.32061 -16.3009 -36.4761 -0.00172947 
6173 701 12 -2.32061 -14.8829 -36.4761 -0.000136306 
6174 701 12 -1.09261 -14.1739 -36.4761 0.000169317 
6175 701 14 1.36339 -17.0099 -36.4761 -0.00327519 
6176 701 15 1.36339 -18.1199 -36.4761 -0.00941902 
6177 701 12 0.135393 -16.3009 -36.4761 -0.00246523 
6178 701 12 0.135393 -14.8829 -36.4761 -0.00030669 
6179 701 12 1.36339 -14.1739 -36.4761 0.000121416 
6181 701 12 2.59139 -16.3009 -36.4761 -0.00303118 
6182 701 12 2.59139 -14.8829 -36.4761 -0.000337615 
6225 701 12 -3.54861 -12.7559 -36.4761 0.000602865 
6229 701 12 -1.09261 -12.7559 -36.4761 0.000494012 
6230 701 12 -2.32061 -12.0469 -36.4761 0.000566972 
6231 701 12 -2.32061 -10.6289 -36.4761 0.000662692 
6233 701 12 1.36339 -12.7559 -36.4761 0.000558528 
6234 701 12 0.135393 -12.0469 -36.4761 0.000551067 
6235 701 12 0.135393 -10.6289 -36.4761 0.00066148 
6238 701 12 2.59139 -12.0469 -36.4761 0.000605663 
6239 701 12 2.59139 -10.6289 -36.4761 0.000665177 
6180 701 12 3.81939 -17.0099 -36.4761 -0.00678174 
6183 701 12 3.81939 -14.1739 -36.4761 0.00017133 
6184 701 14 6.27539 -17.0099 -36.4761 -0.00254497 
6185 701 15 6.27539 -18.1199 -36.4761 -0.00831745 
6186 701 12 5.04739 -16.3009 -36.4761 -0.00248797 
6187 701 12 5.04739 -14.8829 -36.4761 -0.00027133 
6188 701 12 6.27539 -14.1739 -36.4761 0.000194226 
6189 701 12 8.73139 -17.0099 -36.4761 -0.00551753 
6190 701 12 7.50339 -16.3009 -36.4761 -0.00193254 
6191 701 12 7.50339 -14.8829 -36.4761 -0.000110076 
6192 701 12 8.73139 -14.1739 -36.4761 0.0003589 
6194 701 12 9.96039 -16.3009 -36.4761 -0.00184203 
6195 701 12 9.96039 -14.8829 -36.4761 1.16724e-05 
6237 701 12 3.81939 -12.7559 -36.4761 0.000581191 
6241 701 12 6.27539 -12.7559 -36.4761 0.000565163 
6242 701 12 5.04739 -12.0469 -36.4761 0.000599637 
6243 701 14 5.04739 -10.6289 -36.4761 0.000576227 
6244 701 15 6.00839 -10.0739 -36.4761 0.000668125 
6245 701 12 8.73139 -12.7559 -36.4761 0.000635826 
6246 701 12 7.50339 -12.0469 -36.4761 0.000582612 
6247 701 14 7.50339 -10.6289 -36.4761 0.000686495 
6250 701 12 9.96039 -12.0469 -36.4761 0.000707572 
6251 701 12 9.96039 -10.6289 -36.4761 0.000709011 
6193 701 12 11.1884 -17.0099 -36.4761 -0.00783146 
6196 701 12 11.1884 -14.1739 -36.4761 0.000346717 
6197 701 14 13.6444 -17.0099 -36.4761 -0.017988 
6198 701 12 12.4164 -16.3009 -36.4761 -0.00275892 
6199 701 12 12.4164 -14.8829 -36.4761 -0.000424327 
6200 701 12 13.6444 -14.1739 -36.4761 -9.44075e-05 
6201 701 12 16.1004 -17.0099 -36.4761 -0.0544004 
6202 701 12 14.8724 -16.3009 -36.4761 -0.00706366 
6203 701 12 14.8724 -14.8829 -36.4761 -0.00188449 
6204 701 12 16.1004 -14.1739 -36.4761 -0.00408166 
6249 701 12 11.1884 -12.7559 -36.4761 0.00073709 
6253 701 14 13.6444 -12.7559 -36.4761 0.000593782 
6254 701 12 12.4164 -12.0469 -36.4761 0.0007378 
6255 701 12 12.4164 -10.6289 -36.4761 0.000820205 
6257 701 14 16.1004 -12.7559 -36.4761 4.71961e-05 
6258 701 12 14.8724 -12.0469 -36.4761 0.000583134 
6259 701 12 14.8724 -10.6289 -36.4761 0.000696258 
995 53 5 16.2442 -18.6207 -34.1723 0.21 
990 53 2 17.2392 -18.472 -33.6927 -0.11 
1001 53 7 17.2101 -19.5003 -35.9139 0.13 
6208 701 12 -15.8286 -9.91989 -36.4761 0.000506141 
6212 701 12 -13.3726 -9.91989 -36.4761 0.000318966 
6261 701 12 -15.8286 -8.50189 -36.4761 0.000481713 
6262 701 12 -17.0566 -7.79289 -36.4761 0.000694939 
6263 701 12 -17.0566 -6.37489 -36.4761 0.000706492 
6264 701 12 -15.8286 -5.66589 -36.4761 0.000504245 
6265 701 12 -13.3726 -8.50189 -36.4761 0.000313888 
6266 701 12 -14.6006 -7.79289 -36.4761 0.000447031 
6267 701 12 -14.6006 -6.37489 -36.4761 0.000512246 
6268 701 12 -13.3726 -5.66589 -36.4761 0.000626514 
6270 701 12 -12.1446 -7.79289 -36.4761 0.000427122 
6271 701 12 -12.1446 -6.37489 -36.4761 0.000682925 
6317 701 12 -15.8286 -4.24789 -36.4761 0.000570898 
6318 701 12 -17.0566 -3.53889 -36.4761 0.000516059 
6319 701 12 -17.0566 -2.12089 -36.4761 0.000574643 
6320 701 12 -15.8286 -1.41189 -36.4761 0.000784036 
6321 701 12 -13.3726 -4.24789 -36.4761 0.000740165 
6322 701 12 -14.6006 -3.53889 -36.4761 0.000624316 
6323 701 12 -14.6006 -2.12089 -36.4761 0.000811943 
6324 701 12 -13.3726 -1.41189 -36.4761 0.000990315 
6326 701 12 -12.1446 -3.53889 -36.4761 0.000897831 
6327 701 12 -12.1446 -2.12089 -36.4761 0.000998262 
7086 701 13 -15.8646 -4.41289 -37.8681 -0.000714766 
6216 701 12 -10.9166 -9.91989 -36.4761 0.000454204 
6220 701 12 -8.46061 -9.91989 -36.4761 0.000675329 
6224 701 12 -6.00461 -9.91989 -36.4761 0.000513233 
6269 701 12 -10.9166 -8.50189 -36.4761 0.000463054 
6272 701 12 -10.9166 -5.66589 -36.4761 0.0008019 
6273 701 12 -8.46061 -8.50189 -36.4761 0.000679447 
6274 701 12 -9.68861 -7.79289 -36.4761 0.000684348 
6275 701 12 -9.68861 -6.37489 -36.4761 0.000797581 
6276 701 12 -8.46061 -5.66589 -36.4761 0.000880946 
6277 701 12 -6.00461 -8.50189 -36.4761 0.000403382 
6278 701 12 -7.23261 -7.79289 -36.4761 0.000619677 
6279 701 12 -7.23261 -6.37489 -36.4761 0.000773134 
6280 701 12 -6.00461 -5.66589 -36.4761 0.000775898 
6282 701 12 -4.77661 -7.79289 -36.4761 0.000462926 
6283 701 12 -4.77661 -6.37489 -36.4761 0.000681286 
6325 701 12 -10.9166 -4.24789 -36.4761 0.000926236 
6328 701 12 -10.9166 -1.41189 -36.4761 0.00102939 
6329 701 12 -8.46061 -4.24789 -36.4761 0.000996311 
6330 701 12 -9.68861 -3.53889 -36.4761 0.00102036 
6331 701 12 -9.68861 -2.12089 -36.4761 0.00113401 
6332 701 12 -8.46061 -1.41189 -36.4761 0.00128246 
6333 701 14 -6.00461 -4.24789 -36.4761 0.000887154 
6334 701 12 -7.23261 -3.53889 -36.4761 0.00100223 
6335 701 12 -7.23261 -2.12089 -36.4761 0.00127336 
6336 701 12 -6.00461 -1.41189 -36.4761 0.000991938 
6338 701 12 -4.77661 -3.53889 -36.4761 0.00081476 
6339 701 12 -4.77661 -2.12089 -36.4761 0.000873178 
7075 701 13 -8.69261 -2.02489 -37.5381 -0.000635614 
7076 701 15 -7.58261 -2.02489 -37.5381 -0.000668613 
6228 701 12 -3.54861 -9.91989 -36.4761 0.000525136 
6232 701 12 -1.09261 -9.91989 -36.4761 0.0007052 
6236 701 12 1.36339 -9.91989 -36.4761 0.00068319 
6281 701 12 -3.54861 -8.50189 -36.4761 0.000519608 
6284 701 12 -3.54861 -5.66589 -36.4761 0.000726788 
6285 701 12 -1.09261 -8.50189 -36.4761 0.00075457 
6286 701 12 -2.32061 -7.79289 -36.4761 0.000707635 
6287 701 12 -2.32061 -6.37489 -36.4761 0.000709204 
6288 701 12 -1.09261 -5.66589 -36.4761 0.000690236 
6289 701 12 1.36339 -8.50189 -36.4761 0.000692436 
6290 701 12 0.135393 -7.79289 -36.4761 0.000636993 
6291 701 12 0.135393 -6.37489 -36.4761 0.000570816 
6292 701 12 1.36339 -5.66589 -36.4761 0.000699361 
6294 701 12 2.59139 -7.79289 -36.4761 0.000722378 
6295 701 12 2.59139 -6.37489 -36.4761 0.000756594 
6337 701 12 -3.54861 -4.24789 -36.4761 0.000758617 
6340 701 14 -3.54861 -1.41189 -36.4761 0.000953592 
6341 701 12 -1.09261 -4.24789 -36.4761 0.000813335 
6342 701 12 -2.32061 -3.53889 -36.4761 0.000778748 
6343 701 12 -2.32061 -2.12089 -36.4761 0.000709067 
6344 701 12 -1.09261 -1.41189 -36.4761 0.000720018 
6345 701 12 1.36339 -4.24789 -36.4761 0.000858366 
6346 701 12 0.135393 -3.53889 -36.4761 0.00088914 
6347 701 12 0.135393 -2.12089 -36.4761 0.00107269 
6348 701 12 1.36339 -1.41189 -36.4761 0.000780893 
6350 701 12 2.59139 -3.53889 -36.4761 0.000874048 
6351 701 12 2.59139 -2.12089 -36.4761 0.000831986 
7073 701 13 -0.629607 -2.06289 -37.5151 -0.000486408 
7074 701 15 0.480393 -2.06289 -37.5151 -0.000564766 
6240 701 12 3.81939 -9.91989 -36.4761 0.000697656 
6248 701 12 8.73139 -9.91989 -36.4761 0.000657889 
6293 701 12 3.81939 -8.50189 -36.4761 0.00073654 
6296 701 12 3.81939 -5.66589 -36.4761 0.000831316 
6297 701 14 6.27539 -8.50189 -36.4761 0.000811144 
6298 701 12 5.04739 -7.79289 -36.4761 0.000780847 
6299 701 12 5.04739 -6.37489 -36.4761 0.000853511 
6300 701 12 6.27539 -5.66589 -36.4761 0.000939146 
6301 701 12 8.73139 -8.50189 -36.4761 0.00071728 
6302 701 12 7.50339 -7.79289 -36.4761 0.00078369 
6303 701 12 7.50339 -6.37489 -36.4761 0.000920035 
6304 701 12 8.73139 -5.66589 -36.4761 0.000903289 
6306 701 12 9.96039 -7.79289 -36.4761 0.000766184 
6307 701 12 9.96039 -6.37489 -36.4761 0.000832724 
6349 701 12 3.81939 -4.24789 -36.4761 0.000841824 
6352 701 12 3.81939 -1.41189 -36.4761 0.000625528 
6353 701 14 6.27539 -4.24789 -36.4761 0.00086186 
6354 701 12 5.04739 -3.53889 -36.4761 0.000710826 
6355 701 12 5.04739 -2.12089 -36.4761 0.000513953 
6356 701 12 6.27539 -1.41189 -36.4761 0.000515407 
6357 701 12 8.73139 -4.24789 -36.4761 0.000916358 
6358 701 12 7.50339 -3.53889 -36.4761 0.000816508 
6359 701 12 7.50339 -2.12089 -36.4761 0.000659793 
6360 701 12 8.73139 -1.41189 -36.4761 0.000734858 
6362 701 12 9.96039 -3.53889 -36.4761 0.000871608 
6363 701 12 9.96039 -2.12089 -36.4761 0.000946388 
7071 701 13 9.26639 -2.43389 -37.7111 -0.000514418 
7072 701 15 10.3764 -2.43389 -37.7111 -0.000557913 
7083 701 13 3.38039 -2.70689 -37.8331 -0.000666321 
6252 701 12 11.1884 -9.91989 -36.4761 0.000777061 
6256 701 12 13.6444 -9.91989 -36.4761 0.000795683 
6260 701 12 16.1004 -9.91989 -36.4761 0.000723423 
6305 701 12 11.1884 -8.50189 -36.4761 0.000791216 
6308 701 12 11.1884 -5.66589 -36.4761 0.000790467 
6309 701 12 13.6444 -8.50189 -36.4761 0.000824975 
6310 701 12 12.4164 -7.79289 -36.4761 0.000832747 
6311 701 12 12.4164 -6.37489 -36.4761 0.00079917 
6312 701 12 13.6444 -5.66589 -36.4761 0.000755249 
6313 701 14 16.1004 -8.50189 -36.4761 0.000874257 
6314 701 12 14.8724 -7.79289 -36.4761 0.000784356 
6315 701 12 14.8724 -6.37489 -36.4761 0.000780085 
6316 701 12 16.1004 -5.66589 -36.4761 0.000841261 
6361 701 12 11.1884 -4.24789 -36.4761 0.000754527 
6364 701 12 11.1884 -1.41189 -36.4761 0.000675862 
6365 701 12 13.6444 -4.24789 -36.4761 0.000673335 
6366 701 12 12.4164 -3.53889 -36.4761 0.000667124 
6367 701 12 12.4164 -2.12089 -36.4761 0.00062554 
6368 701 12 13.6444 -1.41189 -36.4761 0.000565099 
6369 701 14 16.1004 -4.24789 -36.4761 0.000645698 
6370 701 12 14.8724 -3.53889 -36.4761 0.000609302 
6371 701 12 14.8724 -2.12089 -36.4761 0.000526846 
6372 701 12 16.1004 -1.41189 -36.4761 0.000372543 
6595 701 12 -15.8286 -15.5919 -33.1261 -0.0460228 
6596 701 12 -17.0566 -14.8829 -33.1261 -0.0380046 
6597 701 14 -17.0566 -13.4649 -33.1261 -0.0226084 
6598 701 15 -18.0176 -12.9099 -33.1261 -0.0334711 
6599 701 12 -15.8286 -12.7559 -33.1261 -0.0267612 
6600 701 12 -13.3726 -15.5919 -33.1261 -0.0439981 
6601 701 12 -14.6006 -14.8829 -33.1261 -0.0197083 
6602 701 12 -14.6006 -13.4649 -33.1261 -0.0195165 
6603 701 12 -13.3726 -12.7559 -33.1261 -0.018576 
6605 701 12 -12.1446 -14.8829 -33.1261 -0.0186752 
6606 701 12 -12.1446 -13.4649 -33.1261 -0.0170454 
6652 701 12 -15.8286 -11.3379 -33.1261 -0.0180815 
6653 701 12 -17.0566 -10.6289 -33.1261 -0.0190753 
6657 701 12 -13.3726 -11.3379 -33.1261 -0.0134269 
6658 701 12 -14.6006 -10.6289 -33.1261 -0.0109352 
6662 701 14 -12.1446 -10.6289 -33.1261 -0.0101747 
2555 135 6 -15.1581 -14.7102 -29.623 0.21 
2550 135 3 -14.0898 -14.6018 -29.5985 -0.13 
2556 135 6 -13.6148 -12.4618 -30.1351 0.21 
2551 135 3 -13.3416 -13.5225 -29.8929 -0.13 
2549 135 1 -13.2032 -15.6908 -29.5335 0.15 
4640 245 3 -16.4922 -11.8996 -28.7355 -0.13 
2554 135 4 -13.5731 -17.1323 -29.5309 -0.17 
2561 135 7 -13.3106 -17.5001 -28.5911 0.13 
2562 135 7 -14.687 -17.2022 -29.4634 0.13 
5758 435 11 -17.1322 -16.3152 -29.5174 -0.49 
2560 135 8 -13.172 -17.9948 -30.7355 -0.05 
5755 435 10 -17.3566 -16.4162 -28.1402 0.96 
4644 245 4 -17.0028 -11.5974 -26.2768 -0.17 
4641 245 3 -16.9931 -12.5898 -29.7624 -0.13 
4639 245 1 -17.3076 -11.9268 -27.6859 0.15 
5756 435 11 -16.7372 -17.5106 -27.5694 -0.49 
992 53 3 -17.2911 -18.1383 -32.4371 -0.13 
997 53 6 -16.8399 -17.8993 -31.4887 0.21 
2563 135 9 -13.7794 -17.9859 -31.5872 0.06 
5757 435 11 -16.8045 -15.3381 -27.462 -0.49 
1007 53 9 -18.2332 -19.2797 -29.9326 0.06 
2548 135 2 -11.9733 -15.1818 -29.422 -0.11 
2564 135 9 -12.2051 -17.7651 -31.0192 0.06 
2547 135 1 -12.0258 -13.8238 -29.5034 0.15 
1601 85 3 -13.2532 -18.1468 -25.6445 -0.13 
4650 245 8 -15.968 -12.5425 -25.6412 -0.05 
2565 135 9 -13.1458 -19.0503 -30.3938 0.06 
4651 245 7 -16.6669 -10.5255 -26.1586 0.13 
1597 85 1 -11.9195 -18.0194 -25.7155 0.15 
1605 85 6 -14.7381 -16.7213 -25.1025 0.21 
1600 85 3 -13.7021 -16.933 -25.4215 -0.13 
4652 245 7 -17.9668 -11.514 -25.6621 0.13 
4646 245 6 -16.5734 -12.8803 -30.7606 0.21 
4638 245 2 -18.3543 -12.4928 -28.1391 -0.11 
4637 245 1 -18.2064 -13.0043 -29.2923 0.15 
1611 85 7 -11.7332 -14.1769 -25.2367 0.13 
4645 245 6 -15.5198 -11.4065 -28.7488 0.21 
6139 511 11 -11.993 -11.0961 -27.6059 -0.49 
6138 511 11 -13.4746 -10.0532 -29.0721 -0.49 
1599 85 1 -12.6826 -15.9696 -25.6836 0.15 
1604 85 4 -12.7482 -14.5363 -25.4598 -0.17 
1598 85 2 -11.6274 -16.7573 -25.9274 -0.11 
4653 245 9 -15.0512 -12.6211 -26.1935 0.06 
1612 85 7 -13.1344 -14.0126 -26.4384 0.13 
1606 85 6 -13.7061 -19.1022 -25.5212 0.21 
4655 245 9 -16.2657 -13.5995 -25.5808 0.06 
2557 135 7 -11.0609 -12.015 -29.8673 0.13 
2552 135 4 -10.8574 -12.9234 -29.5082 -0.17 
2558 135 7 -10.341 -12.887 -28.6017 0.13 
1607 85 7 -10.3495 -18.9838 -26.8146 0.13 
2553 135 5 -11.1817 -15.931 -29.2422 0.21 
5629 409 11 -7.50294 -15.9622 -27.0817 -0.49 
2559 135 7 -10.0826 -13.3157 -30.1544 0.13 
6604 701 12 -10.9166 -15.5919 -33.1261 -0.0446554 
6607 701 12 -10.9166 -12.7559 -33.1261 -0.0186772 
6608 701 12 -8.46061 -15.5919 -33.1261 -0.0438711 
6609 701 12 -9.68861 -14.8829 -33.1261 -0.0169552 
6610 701 12 -9.68861 -13.4649 -33.1261 -0.01656 
6611 701 12 -8.46061 -12.7559 -33.1261 -0.016053 
6612 701 12 -6.00461 -15.5919 -33.1261 -0.0412801 
6613 701 12 -7.23261 -14.8829 -33.1261 -0.0159119 
6614 701 12 -7.23261 -13.4649 -33.1261 -0.0138819 
6615 701 12 -6.00461 -12.7559 -33.1261 -0.0196158 
6617 701 12 -4.77661 -14.8829 -33.1261 -0.0155401 
6618 701 12 -4.77661 -13.4649 -33.1261 -0.0172502 
6661 701 12 -10.9166 -11.3379 -33.1261 -0.0160132 
6665 701 12 -8.46061 -11.3379 -33.1261 -0.0184083 
6666 701 12 -9.68861 -10.6289 -33.1261 -0.0174712 
6669 701 12 -6.00461 -11.3379 -33.1261 -0.0180086 
6670 701 12 -7.23261 -10.6289 -33.1261 -0.0163722 
6674 701 12 -4.77661 -10.6289 -33.1261 -0.0148996 
5625 409 10 -8.53158 -15.6325 -27.8659 0.96 
5627 409 11 -9.26439 -16.8133 -28.1186 -0.49 
5628 409 11 -8.07384 -15.2903 -29.1536 -0.49 
5626 409 11 -9.31696 -14.6129 -27.3538 -0.49 
3100 164 1 -5.56164 -12.3859 -26.3475 0.15 
3101 164 3 -6.89957 -12.5526 -26.8212 -0.13 
349 19 5 -7.22452 -16.827 -31.0491 0.21 
344 19 2 -7.04226 -17.687 -30.4582 -0.11 
3102 164 3 -6.83061 -12.4542 -28.1059 -0.13 
3107 164 6 -7.57955 -12.6474 -28.8739 0.21 
3098 164 1 -5.54299 -12.3249 -28.5165 0.15 
358 19 7 -4.47506 -17.6055 -31.423 0.13 
360 19 9 -4.75693 -15.5362 -29.72 0.06 
3106 164 6 -7.74417 -12.7422 -26.1522 0.21 
3099 164 2 -4.80318 -12.2786 -27.4249 -0.11 
350 19 4 -4.6069 -17.8174 -30.3513 -0.17 
356 19 8 -4.18712 -16.4834 -29.5111 -0.05 
1608 85 7 -10.336 -19.4493 -25.2269 0.13 
345 19 1 -5.93985 -18.289 -30.0879 0.15 
3109 164 7 -5.69764 -11.302 -30.2189 0.13 
361 19 9 -4.22737 -16.6531 -28.4731 0.06 
354 19 7 -9.53651 -17.5426 -31.6071 0.13 
1548 82 6 -7.11964 -17.9604 -25.7637 0.21 
3103 164 4 -5.06618 -12.1437 -29.9096 -0.17 
3108 164 7 -5.25739 -13.0427 -30.5002 0.13 
3110 164 7 -4.03707 -11.8802 -30.0335 0.13 
1603 85 5 -10.6222 -16.422 -26.2729 0.21 
353 19 7 -10.1359 -18.1269 -30.1199 0.13 
343 19 1 -8.02422 -18.5352 -30.3396 0.15 
3539 187 3 -9.53136 -10.0681 -25.0121 -0.13 
1602 85 4 -11.0253 -19.2214 -26.0168 -0.17 
348 19 4 -9.35904 -18.3223 -30.9107 -0.17 
355 19 7 -9.54597 -19.2583 -31.4896 0.13 
346 19 3 -6.22962 -19.5652 -29.7311 -0.13 
1543 82 3 -6.9142 -18.8494 -25.2707 -0.13 
3544 187 6 -9.20652 -11.0683 -25.0543 0.21 
357 19 7 -3.95149 -18.6687 -30.0473 0.13 
3465 183 5 -0.0956352 -16.738 -25.446 0.21 
342 18 9 -1.33924 -18.9242 -30.4026 0.06 
3104 164 5 -3.81177 -12.0882 -27.4828 0.21 
338 18 7 0.048428 -16.9709 -30.2498 0.13 
359 19 9 -3.20367 -16.0742 -29.6627 0.06 
5377 359 11 -0.385459 -13.9024 -26.5909 -0.49 
326 18 1 1.89434 -18.0736 -30.2313 0.15 
331 18 4 0.556623 -17.863 -30.7093 -0.17 
6616 701 12 -3.54861 -15.5919 -33.1261 -0.0324446 
6619 701 12 -3.54861 -12.7559 -33.1261 -0.0145803 
6620 701 12 -1.09261 -15.5919 -33.1261 -0.0303666 
6621 701 12 -2.32061 -14.8829 -33.1261 -0.00940213 
6622 701 12 -2.32061 -13.4649 -33.1261 -0.00875365 
6623 701 12 -1.09261 -12.7559 -33.1261 -0.00911813 
6624 701 12 1.36339 -15.5919 -33.1261 -0.0430671 
6625 701 12 0.135393 -14.8829 -33.1261 -0.0122259 
6626 701 12 0.135393 -13.4649 -33.1261 -0.00941887 
6627 701 12 1.36339 -12.7559 -33.1261 -0.0133398 
6629 701 12 2.59139 -14.8829 -33.1261 -0.015527 
6630 701 12 2.59139 -13.4649 -33.1261 -0.0138517 
6673 701 14 -3.54861 -11.3379 -33.1261 -0.0154512 
6677 701 12 -1.09261 -11.3379 -33.1261 -0.0129473 
6678 701 12 -2.32061 -10.6289 -33.1261 -0.0151808 
6681 701 12 1.36339 -11.3379 -33.1261 -0.0143675 
6682 701 12 0.135393 -10.6289 -33.1261 -0.0141458 
6686 701 12 2.59139 -10.6289 -33.1261 -0.0150437 
5375 359 10 -1.48793 -14.4259 -27.2969 0.96 
5379 359 11 -2.42794 -14.7737 -26.4582 -0.49 
5376 359 11 -1.0431 -15.5347 -28.1153 -0.49 
5378 359 11 -1.99086 -13.3947 -28.1023 -0.49 
330 18 5 2.94416 -18.4773 -32.0164 0.21 
683 36 9 0.337493 -13.2245 -29.5287 0.06 
679 36 8 1.2193 -12.4831 -29.5843 -0.05 
682 36 9 1.12078 -11.9128 -30.5145 0.06 
339 18 7 0.675707 -17.6654 -31.777 0.13 
684 36 9 0.986556 -11.7333 -28.783 0.06 
327 18 3 2.27709 -18.2047 -28.8983 -0.13 
325 18 2 2.96463 -18.3529 -30.9621 -0.11 
332 18 6 1.58955 -18.0272 -28.0407 0.21 
337 18 8 -0.24176 -19.0748 -30.3011 -0.05 
3469 183 7 -2.19943 -18.948 -27.7207 0.13 
3470 183 7 -0.734561 -17.8922 -28.0076 0.13 
3464 183 4 -1.26127 -18.5739 -27.2972 -0.17 
3459 183 1 -1.70172 -18.0635 -25.9695 0.15 
680 36 7 2.86001 -13.8992 -30.1255 0.13 
681 36 7 2.76906 -13.5157 -28.4362 0.13 
673 36 4 2.61611 -13.0248 -29.4259 -0.17 
3468 183 6 -3.24514 -19.4155 -25.5684 0.21 
505 27 7 -1.1517 -11.3029 -25.8656 0.13 
3463 183 3 -2.72861 -18.5357 -25.2444 -0.13 
3471 183 7 -0.603657 -19.412 -27.0981 0.13 
500 27 4 -1.7204 -10.7568 -25.1361 -0.17 
5181 320 11 1.80067 -19.1758 -25.6996 -0.49 
3325 175 9 -1.69797 -10.4291 -28.371 0.06 
672 36 5 2.86204 -10.1921 -29.5231 0.21 
507 27 7 -2.66802 -10.7279 -25.5831 0.13 
4725 249 7 2.77126 -14.9752 -25.6759 0.13 
341 18 9 0.0687716 -19.4559 -29.3344 0.06 
3460 183 2 -1.05935 -17.225 -25.2111 -0.11 
2906 153 9 5.60464 -11.2336 -26.1304 0.06 
3742 197 9 9.5394 -18.0216 -25.584 0.06 
328 18 3 3.54693 -18.6152 -28.8927 -0.13 
2902 153 8 6.21167 -11.1747 -25.1869 -0.05 
668 36 1 3.7625 -12.1213 -29.5558 0.15 
667 36 2 3.76869 -10.8539 -29.6219 -0.11 
335 18 7 5.45186 -18.6621 -31.6668 0.13 
324 18 1 4.01994 -18.5294 -30.1956 0.15 
333 18 6 4.29393 -18.832 -28.1214 0.21 
666 36 1 4.97584 -10.4223 -29.629 0.15 
941 50 6 8.82712 -19.3709 -30.149 0.21 
940 50 6 8.00608 -16.8183 -30.0616 0.21 
674 36 6 5.22616 -13.6286 -29.6148 0.21 
5145 313 10 5.54108 -15.9214 -27.5922 0.96 
669 36 3 5.08166 -12.5688 -29.5677 -0.13 
329 18 4 5.36856 -18.8883 -30.642 -0.17 
6628 701 12 3.81939 -15.5919 -33.1261 -0.0380717 
6631 701 12 3.81939 -12.7559 -33.1261 -0.0144165 
6632 701 12 6.27539 -15.5919 -33.1261 -0.0299656 
6633 701 12 5.04739 -14.8829 -33.1261 -0.0122515 
6634 701 14 5.04739 -13.4649 -33.1261 -0.0128163 
6635 701 12 6.27539 -12.7559 -33.1261 -0.0127374 
6636 701 12 8.73139 -15.5919 -33.1261 -0.033678 
6637 701 12 7.50339 -14.8829 -33.1261 -0.0149399 
6638 701 12 7.50339 -13.4649 -33.1261 -0.0139292 
6639 701 12 8.73139 -12.7559 -33.1261 -0.0153172 
6641 701 12 9.96039 -14.8829 -33.1261 -0.0219041 
6642 701 12 9.96039 -13.4649 -33.1261 -0.0193144 
6685 701 12 3.81939 -11.3379 -33.1261 -0.0145823 
6689 701 12 6.27539 -11.3379 -33.1261 -0.0139536 
6690 701 12 5.04739 -10.6289 -33.1261 -0.0149406 
6693 701 12 8.73139 -11.3379 -33.1261 -0.0130836 
6694 701 12 7.50339 -10.6289 -33.1261 -0.013266 
6698 701 12 9.96039 -10.6289 -33.1261 -0.0150169 
945 50 8 8.63559 -14.2786 -29.5751 -0.05 
948 50 9 8.21014 -14.6851 -28.6659 0.06 
935 50 3 9.04568 -17.1905 -30.1398 -0.13 
5148 313 11 6.037 -15.8387 -28.8997 -0.49 
949 50 9 8.73021 -13.1314 -29.4079 0.06 
670 36 3 5.91415 -11.4885 -29.6367 -0.13 
675 36 6 7.0418 -11.4334 -29.6566 0.21 
5147 313 11 6.17567 -15.0284 -26.6724 -0.49 
939 50 4 9.96977 -14.9089 -29.7527 -0.17 
5146 313 11 5.91367 -17.1467 -27.0532 -0.49 
5149 313 11 4.17548 -15.7897 -27.6777 -0.49 
936 50 3 9.50619 -18.466 -30.1416 -0.13 
950 50 9 8.04913 -14.3505 -30.4938 0.06 
934 50 1 10.1217 -16.3339 -30.0104 0.15 
336 18 7 6.05155 -18.2626 -30.0015 0.13 
4398 232 6 5.99833 -18.9146 -25.7417 0.21 
2907 153 9 7.16584 -11.6012 -25.4634 0.06 
3741 197 9 9.77575 -17.4104 -27.1108 0.06 
3738 197 8 10.2928 -17.4823 -26.1706 -0.05 
947 50 7 10.4344 -14.5611 -30.6274 0.13 
6101 504 11 8.974 -10.887 -28.002 -0.49 
1032 55 4 10.0594 -12.8177 -25.1122 -0.17 
4724 249 7 4.2954 -14.3528 -25.2727 0.13 
1039 55 7 9.51472 -13.7053 -25.3626 0.13 
3743 197 9 10.2073 -16.3868 -25.9238 0.06 
1037 55 7 9.66061 -12.0451 -25.8298 0.13 
943 50 7 12.22 -19.3773 -29.0839 0.13 
1038 55 7 11.0566 -12.8779 -25.5303 0.13 
946 50 7 10.5684 -14.6967 -28.8583 0.13 
773 41 7 10.9587 -11.5319 -30.439 0.13 
3727 197 1 12.2738 -18.4917 -25.0328 0.15 
1002 53 8 16.9342 -19.0326 -30.1677 -0.05 
2580 136 7 14.8816 -11.0441 -26.0363 0.13 
3732 197 4 11.622 -18.092 -26.3323 -0.17 
5759 435 11 17.4878 -16.5042 -28.0438 -0.49 
991 53 1 17.5307 -18.2693 -32.4211 0.15 
932 50 1 10.9088 -18.4016 -30.192 0.15 
1004 53 7 15.5523 -18.1091 -31.6858 0.13 
5986 481 11 14.7347 -14.2152 -27.0676 -0.49 
771 41 7 12.1087 -12.8416 -30.4393 0.13 
766 41 4 11.8266 -11.996 -29.9423 -0.17 
772 41 7 11.2956 -12.2317 -29.0049 0.13 
933 50 2 11.1669 -17.0911 -30.4009 -0.11 
1003 53 7 16.824 -16.9948 -31.0003 0.13 
937 50 4 11.8562 -19.5159 -30.0888 -0.17 
4643 245 5 17.0311 -12.7064 -27.529 0.21 
4648 245 7 17.6152 -14.5594 -30.6035 0.13 
4649 245 7 16.3437 -14.4777 -29.2504 0.13 
996 53 4 16.597 -18.0303 -31.3284 -0.17 
938 50 5 12.0567 -16.6486 -30.6023 0.21 
4647 245 7 16.3017 -13.4074 -30.6599 0.13 
4642 245 4 17.0143 -13.8745 -29.95 -0.17 
5989 481 11 13.0798 -12.6387 -26.9613 -0.49 
5987 481 11 12.9009 -14.4899 -28.2883 -0.49 
5985 481 10 13.3879 -14.0049 -27.0461 0.96 
6640 701 12 11.1884 -15.5919 -33.1261 -0.0445829 
6643 701 12 11.1884 -12.7559 -33.1261 -0.0216758 
6644 701 12 13.6444 -15.5919 -33.1261 -0.044282 
6645 701 12 12.4164 -14.8829 -33.1261 -0.0213205 
6646 701 12 12.4164 -13.4649 -33.1261 -0.0199434 
6647 701 12 13.6444 -12.7559 -33.1261 -0.0193991 
6648 701 12 16.1004 -15.5919 -33.1261 -0.0708125 
6649 701 12 14.8724 -14.8829 -33.1261 -0.0193761 
6650 701 12 14.8724 -13.4649 -33.1261 -0.0206568 
6651 701 12 16.1004 -12.7559 -33.1261 -0.0313699 
6697 701 12 11.1884 -11.3379 -33.1261 -0.0206533 
6701 701 12 13.6444 -11.3379 -33.1261 -0.0195386 
6702 701 12 12.4164 -10.6289 -33.1261 -0.0201603 
6705 701 14 16.1004 -11.3379 -33.1261 -0.0151518 
6706 701 15 17.0614 -10.7829 -33.1261 -0.0210354 
6707 701 12 14.8724 -10.6289 -33.1261 -0.017516 
5988 481 11 12.7143 -14.6647 -26.0108 -0.49 
770 41 6 14.5333 -12.0567 -29.9193 0.21 
4130 218 5 17.2888 -17.0019 -25.5235 0.21 
3740 197 7 11.6981 -18.9697 -26.9483 0.13 
3739 197 7 12.3028 -17.4004 -26.8696 0.13 
765 41 3 14.2045 -11.1084 -29.9065 -0.13 
761 41 1 12.8669 -10.8996 -30.053 0.15 
4124 218 1 17.4613 -19.0777 -25.0555 0.15 
1005 53 9 16.4974 -18.6119 -29.2406 0.06 
4136 218 7 16.7782 -19.2505 -27.1238 0.13 
942 50 7 12.6583 -19.4825 -30.8394 0.13 
2573 136 4 14.6447 -10.6396 -25.0138 -0.17 
6136 511 11 -11.697 -8.98578 -28.2476 -0.49 
4959 275 11 -15.5178 -0.553807 -26.5691 -0.49 
3769 199 5 -18.1236 -1.94156 -30.0191 0.21 
4957 275 11 -16.71 -2.06048 -27.7779 -0.49 
6135 511 10 -12.6282 -9.91792 -27.9522 0.96 
6137 511 11 -13.4544 -9.39369 -26.9781 -0.49 
4958 275 11 -17.8537 -0.670091 -26.3283 -0.49 
2736 144 9 -14.6817 -5.86422 -26.2835 0.06 
2735 144 9 -14.6779 -4.12454 -25.7488 0.06 
883 47 6 -13.2642 -7.05987 -29.618 0.21 
887 47 7 -14.7856 -2.07244 -29.9059 0.13 
885 47 7 -14.159 -1.91662 -28.4308 0.13 
880 47 4 -13.9649 -2.42551 -29.3567 -0.17 
879 47 3 -13.1345 -4.84671 -29.6762 -0.13 
875 47 1 -14.0157 -3.90695 -29.1765 0.15 
6654 701 14 -17.0566 -9.21089 -33.1261 -0.00992664 
6655 701 15 -18.0176 -8.65589 -33.1261 -0.0181821 
6656 701 12 -15.8286 -8.50189 -33.1261 -0.0137106 
6659 701 12 -14.6006 -9.21089 -33.1261 -0.00938602 
6660 701 12 -13.3726 -8.50189 -33.1261 -0.00310545 
6663 701 12 -12.1446 -9.21089 -33.1261 0.0129597 
6710 701 12 -15.8286 -7.08389 -33.1261 -0.0135916 
6711 701 12 -17.0566 -6.37489 -33.1261 -0.0185917 
6712 701 14 -17.0566 -4.95689 -33.1261 -0.0109003 
6713 701 15 -18.0176 -4.40189 -33.1261 -0.0281524 
6714 701 12 -15.8286 -4.24789 -33.1261 0.0108037 
6715 701 12 -13.3726 -7.08389 -33.1261 -0.0132835 
6716 701 12 -14.6006 -6.37489 -33.1261 -0.0130243 
6717 701 12 -14.6006 -4.95689 -33.1261 -0.010602 
6718 701 12 -13.3726 -4.24789 -33.1261 -0.0154486 
6720 701 12 -12.1446 -6.37489 -33.1261 -0.0167447 
6721 701 12 -12.1446 -4.95689 -33.1261 -0.0195379 
6767 701 12 -15.8286 -2.82989 -33.1261 -0.00983324 
6768 701 12 -17.0566 -2.12089 -33.1261 -0.0279392 
6769 701 14 -17.0566 -0.702895 -33.1261 -0.0173104 
6772 701 12 -13.3726 -2.82989 -33.1261 -0.0186235 
6773 701 12 -14.6006 -2.12089 -33.1261 -0.0190458 
6774 701 12 -14.6006 -0.702895 -33.1261 -0.0224463 
6777 701 12 -12.1446 -2.12089 -33.1261 -0.0217775 
6778 701 14 -12.1446 -0.702895 -33.1261 -0.0259219 
7057 701 13 -12.7436 -8.93489 -32.2071 -0.0239388 
7058 701 15 -11.6336 -8.93489 -32.2071 -0.0432725 
7080 701 13 -15.7766 -4.01589 -32.0901 -0.0673768 
876 47 2 -15.0999 -4.56969 -28.803 -0.11 
878 47 3 -13.6568 -6.02241 -29.5201 -0.13 
877 47 1 -14.8491 -5.88101 -28.9217 0.15 
881 47 5 -15.9817 -4.22435 -28.2475 0.21 
884 47 6 -12.1344 -4.52914 -29.9696 0.21 
4955 275 10 -16.66 -1.32228 -26.6003 0.96 
886 47 7 -12.9458 -2.06988 -29.7201 0.13 
882 47 4 -15.6264 -7.05679 -28.5948 -0.17 
890 47 7 -16.5208 -6.56666 -28.2429 0.13 
889 47 7 -15.1884 -7.54937 -27.7315 0.13 
888 47 8 -15.9205 -8.06817 -29.7316 -0.05 
893 47 9 -15.0963 -8.43423 -30.3714 0.06 
4956 275 11 -16.5017 -2.25521 -25.475 -0.49 
5031 290 11 -17.7516 -6.99125 -26.0772 -0.49 
891 47 9 -16.305 -8.85793 -29.2024 0.06 
892 47 9 -16.6839 -7.61805 -30.4043 0.06 
5721 428 11 -11.8812 -2.26778 -27.4068 -0.49 
5723 428 11 -12.3209 -4.37326 -26.8433 -0.49 
5720 428 10 -11.3419 -3.34217 -26.7181 0.96 
2731 144 8 -14.9751 -5.17364 -25.406 -0.05 
3781 199 9 -17.6032 -4.22153 -29.7477 0.06 
3779 199 9 -18.4494 -5.74312 -29.8793 0.06 
5033 290 11 -18.2152 -8.7381 -27.5524 -0.49 
2734 144 9 -16.0759 -5.22763 -25.3064 0.06 
3551 187 9 -7.69732 -6.37134 -26.0859 0.06 
2312 122 7 -8.08051 -9.99997 -29.4315 0.13 
5489 381 11 -5.19304 -9.36972 -25.7108 -0.49 
5488 381 11 -6.23176 -9.26404 -27.6813 -0.49 
3543 187 6 -7.95801 -8.59092 -25.597 0.21 
3550 187 7 -10.6623 -5.86223 -25.4603 0.13 
3537 187 1 -10.0538 -7.92205 -25.3868 0.15 
3549 187 7 -10.2445 -6.50195 -26.9427 0.13 
658 35 7 -6.39012 -0.817969 -30.6407 0.13 
5724 428 11 -10.1712 -3.796 -27.2595 -0.49 
2309 122 6 -10.6181 -7.29887 -30.3227 0.21 
2311 122 7 -9.65689 -9.73796 -30.2043 0.13 
5486 381 11 -4.07184 -8.87842 -27.5583 -0.49 