ITEM: TIMESTEP
5000000
ITEM: NUMBER OF ATOMS
7936
ITEM: BOX BOUNDS pp pp ff
-1.7300000000000001e+01 1.6899999999999999e+01
-1.8300000000000001e+01 1.7800000000000001e+01
-5.0000000000000000e+01 5.0000000000000000e+01
ITEM: ATOMS id mol type x y z q 
6147 701 12 -16.7108 -15.7435 -41.8961 0 
6149 701 12 -13.3072 -18.0473 -43.1292 0 
6151 701 12 -13.9364 -15.7521 -41.7358 0 
6153 701 12 -10.9826 -18.1731 -41.7058 0 
6155 701 12 -12.0472 -15.6803 -43.8454 0 
6159 701 12 -9.89363 -15.6353 -42.1808 0 
6201 701 12 -15.0578 -13.5539 -43.5018 0 
6203 701 12 -16.4043 -10.9952 -42.8866 0 
6209 701 12 -10.502 -13.2957 -43.5535 0 
6211 701 12 -12.3542 -11.1802 -43.5505 0 
6215 701 12 -9.85641 -11.2021 -41.8565 0 
6157 701 12 -8.45757 -17.8145 -42.1607 0 
6161 701 12 -5.8727 -17.8256 -42.3018 0 
6163 701 12 -7.17988 -15.4338 -42.7938 0 
6165 701 12 -3.32016 -17.8914 -41.6963 0 
6167 701 12 -4.62431 -15.5344 -41.8729 0 
6169 701 12 -0.763213 -17.8667 -41.8525 0 
6219 701 12 -7.21681 -11.343 -43.1871 0 
6221 701 12 -3.32222 -13.3394 -42.8966 0 
6223 701 12 -4.68842 -11.0662 -42.0661 0 
6225 701 12 -0.804064 -13.3258 -41.729 0 
6257 701 12 -15.3016 -8.80757 -43.9471 0 
6259 701 12 -17.0733 -6.87723 -42.5452 0 
6263 701 12 -14.4389 -6.72522 -42.4436 0 
6265 701 12 -10.8022 -8.91207 -43.2227 0 
6267 701 12 -11.8411 -6.66759 -42.224 0 
6313 701 12 -15.7461 -4.51452 -43.5627 0 
6315 701 12 -16.9614 -2.44757 -42.0654 0 
6319 701 12 -14.3761 -2.33607 -42.5751 0 
6321 701 12 -10.8271 -4.32038 -43.3281 0 
6327 701 12 -9.48864 -2.08625 -41.9534 0 
6269 701 12 -8.33924 -9.03697 -42.1892 0 
6275 701 12 -6.97182 -6.6443 -43.222 0 
6277 701 12 -3.33207 -8.87127 -42.9105 0 
6279 701 12 -4.58376 -6.66565 -41.6731 0 
6281 701 12 -0.801431 -8.95558 -41.7051 0 
6283 701 12 -2.03515 -6.69324 -41.761 0 
6325 701 12 -8.33334 -4.43409 -42.1277 0 
6331 701 12 -7.01261 -2.11151 -42.1164 0 
6333 701 12 -3.30699 -4.46851 -42.6412 0 
6335 701 12 -4.51149 -2.13891 -42.2703 0 
6339 701 12 -2.03438 -2.16552 -41.696 0 
6145 701 12 -15.4434 -18.0736 -41.3013 0 
6146 701 12 -16.814 -17.0405 -38.8297 0 
6148 701 12 -15.4415 -14.8837 -39.6916 0 
6150 701 12 -14.3248 -17.1291 -38.9159 0 
6152 701 12 -13.126 -14.908 -38.4317 0 
6154 701 12 -11.9868 -16.9169 -39.6823 0 
6156 701 12 -10.6975 -14.7136 -39.8404 0 
6158 701 12 -9.50523 -17.0939 -39.5007 0 
6202 701 12 -16.6123 -12.6081 -40.3461 0 
6204 701 12 -15.7732 -10.2578 -39.7895 0 
6205 701 12 -12.4773 -13.5325 -41.4906 0 
6206 701 12 -14.5403 -12.661 -38.7897 0 
6207 701 12 -14.1843 -11.5472 -41.4994 0 
6208 701 12 -13.2927 -10.3786 -39.0243 0 
6210 701 12 -12.0228 -12.618 -38.9505 0 
6212 701 12 -10.8352 -10.3135 -39.6303 0 
6214 701 12 -9.52478 -12.5582 -39.1409 0 
6593 701 12 -15.4486 -16.178 -36.6909 0 
6594 701 12 -16.8585 -15.3655 -34.0531 0 
6595 701 12 -16.7641 -13.9973 -36.8106 0 
6596 701 12 -15.7991 -12.9065 -33.6093 0 
6597 701 12 -12.9792 -16.3697 -35.9409 0 
6599 701 12 -14.4017 -14.1407 -35.397 0 
6601 701 12 -10.6332 -16.3713 -37.1645 0 
6602 701 12 -12.4346 -15.2469 -33.6017 0 
6603 701 12 -11.922 -14.0701 -36.3393 0 
6604 701 12 -11.1921 -12.9012 -34.0622 0 
6607 701 12 -9.4221 -14.0352 -36.2639 0 
6649 701 12 -15.8482 -11.6833 -36.8559 0 
6653 701 12 -13.326 -11.8902 -36.2896 0 
6654 701 12 -14.0239 -10.8462 -33.8784 0 
6657 701 12 -10.7878 -11.723 -36.8306 0 
6662 701 12 -9.60581 -10.8557 -33.4795 0 
6651 701 12 -16.6666 -9.62363 -35.7202 0 
6655 701 12 -14.3688 -9.49953 -36.8846 0 
6659 701 12 -12.0571 -9.6881 -35.5604 0 
6663 701 12 -9.63645 -9.47329 -36.5393 0 
6988 701 12 -15.4264 -17.5713 -34.0972 0 
6996 701 12 -10.9851 -17.4566 -33.6928 0 
6160 701 12 -8.35311 -14.9326 -38.4658 0 
6162 701 12 -7.07285 -17.1835 -39.1148 0 
6164 701 12 -5.86996 -14.8953 -39.3489 0 
6166 701 12 -4.57479 -17.1533 -39.3318 0 
6168 701 12 -3.29056 -14.8708 -38.9711 0 
6170 701 12 -2.07488 -17.1051 -38.8246 0 
6171 701 12 -2.02586 -15.5765 -41.6136 0 
6172 701 12 -0.706351 -14.848 -39.3209 0 
6213 701 12 -8.48964 -13.4414 -41.4488 0 
6216 701 12 -8.3185 -10.3594 -38.6471 0 
6217 701 12 -5.88294 -13.2632 -41.485 0 
6218 701 12 -7.05473 -12.6598 -38.8978 0 
6220 701 12 -5.83958 -10.4031 -39.4799 0 
6222 701 12 -4.50913 -12.6159 -39.1852 0 
6224 701 12 -3.3268 -10.3658 -38.8527 0 
6226 701 12 -1.99117 -12.623 -38.8381 0 
6227 701 12 -2.16514 -11.1443 -41.5101 0 
6228 701 12 -0.765093 -10.3498 -39.3072 0 
6605 701 12 -8.34888 -16.2421 -35.5733 0 
6609 701 12 -5.93999 -16.1823 -36.8269 0 
6611 701 12 -6.86185 -13.9349 -35.3943 0 
6613 701 12 -3.35949 -16.2277 -36.015 0 
6614 701 12 -4.69969 -15.5006 -33.6983 0 
6615 701 12 -4.56997 -14.004 -36.7079 0 
6616 701 12 -3.47 -13.2767 -33.8467 0 
6617 701 12 -0.7817 -16.2666 -36.4439 0 
6619 701 12 -2.01781 -14.0115 -36.1067 0 
6661 701 12 -8.34287 -11.7663 -36.0162 0 
6665 701 12 -5.81998 -11.7519 -36.7793 0 
6666 701 12 -6.92198 -11.2587 -33.8614 0 
6669 701 12 -3.28379 -11.7709 -36.0583 0 
6673 701 12 -0.699942 -11.7544 -36.6956 0 
6674 701 12 -2.10441 -11.0937 -33.5937 0 
6667 701 12 -7.0841 -9.5254 -36.2481 0 
6671 701 12 -4.56813 -9.56671 -36.0478 0 
6675 701 12 -2.04876 -9.52135 -36.6709 0 
7012 701 12 -0.76291 -17.7654 -33.5472 0 
7008 701 12 -3.3199 -17.7435 -33.6999 0 
6258 701 12 -16.7001 -8.22844 -38.5259 0 
6260 701 12 -15.7668 -5.79048 -40.1014 0 
6261 701 12 -13.0498 -9.08186 -41.5932 0 
6262 701 12 -14.3932 -8.02177 -39.597 0 
6264 701 12 -13.2421 -5.90997 -38.8761 0 
6266 701 12 -11.9735 -8.20217 -38.4375 0 
6268 701 12 -10.8313 -5.8535 -39.5415 0 
6270 701 12 -9.56043 -8.13522 -39.4253 0 
6271 701 12 -9.32179 -6.70702 -41.6198 0 
6314 701 12 -16.6454 -3.74153 -38.5662 0 
6316 701 12 -15.5225 -1.40617 -39.6047 0 
6317 701 12 -13.2005 -4.58527 -41.3845 0 
6318 701 12 -14.2078 -3.57734 -39.1804 0 
6320 701 12 -13.0411 -1.30275 -39.3867 0 
6322 701 12 -11.7803 -3.68565 -38.1134 0 
6323 701 12 -11.9497 -2.3214 -41.5766 0 
6324 701 12 -10.644 -1.406 -38.8029 0 
6326 701 12 -9.53902 -3.6306 -39.7456 0 
6652 701 12 -15.9062 -8.83353 -33.4106 0 
6660 701 12 -11.1378 -8.70903 -33.3483 0 
6705 701 12 -15.7075 -7.27347 -36.3952 0 
6707 701 12 -16.8039 -5.08458 -35.9061 0 
6708 701 12 -15.4671 -4.28853 -33.8748 0 
6709 701 12 -13.2075 -7.33456 -36.1807 0 
6710 701 12 -14.1839 -6.67977 -33.8533 0 
6711 701 12 -14.2974 -4.99381 -36.7398 0 
6713 701 12 -10.7552 -7.21883 -36.3762 0 
6715 701 12 -12.0076 -5.13659 -35.391 0 
6718 701 12 -9.70084 -6.60346 -33.9629 0 
6719 701 12 -9.64613 -4.94091 -36.7398 0 
6761 701 12 -15.453 -2.75123 -36.3904 0 
6763 701 12 -16.6785 -0.45586 -36.1963 0 
6765 701 12 -13.0497 -2.77359 -35.7652 0 
6766 701 12 -14.4355 -1.89962 -33.7358 0 
6767 701 12 -14.2592 -0.505526 -36.569 0 
6769 701 12 -10.5829 -2.76803 -35.7091 0 
6771 701 12 -11.817 -0.531768 -36.534 0 
6774 701 12 -9.42499 -1.98271 -33.4508 0 
6775 701 12 -9.39118 -0.463804 -36.0867 0 
6272 701 12 -8.33506 -5.90608 -38.7208 0 
6273 701 12 -5.8854 -8.81585 -41.5337 0 
6274 701 12 -7.05759 -8.14328 -38.9856 0 
6276 701 12 -5.85459 -5.91708 -39.4033 0 
6278 701 12 -4.56082 -8.12713 -38.5362 0 
6280 701 12 -3.32879 -5.86455 -38.9568 0 
6282 701 12 -2.12908 -8.11252 -39.3853 0 
6284 701 12 -0.793628 -5.85241 -39.2211 0 
6328 701 12 -8.19703 -1.3561 -39.0284 0 
6329 701 12 -5.80022 -4.37402 -41.5424 0 
6330 701 12 -7.07132 -3.66782 -38.7711 0 
6332 701 12 -5.7531 -1.35749 -39.2385 0 
6334 701 12 -4.56814 -3.60833 -39.0598 0 
6336 701 12 -3.27353 -1.31799 -39.1249 0 
6337 701 12 -0.798102 -4.43903 -41.626 0 
6338 701 12 -2.05948 -3.5931 -39.1735 0 
6340 701 12 -0.779408 -1.31869 -39.1406 0 
6668 701 12 -5.96065 -8.89144 -33.5694 0 
6672 701 12 -3.36495 -8.8599 -33.7922 0 
6717 701 12 -8.27541 -7.23597 -36.2046 0 
6721 701 12 -5.79629 -7.25073 -36.328 0 
6722 701 12 -7.13792 -6.62033 -33.4896 0 
6723 701 12 -7.12283 -4.95983 -35.6175 0 
6725 701 12 -3.26506 -7.26963 -36.0426 0 
6727 701 12 -4.61835 -5.03527 -36.6151 0 
6728 701 12 -3.3628 -4.29942 -34.0058 0 
6729 701 12 -0.739398 -7.27947 -36.6353 0 
6730 701 12 -2.03739 -6.57706 -33.6679 0 
6731 701 12 -2.02039 -5.04661 -36.5033 0 
6773 701 12 -8.24755 -2.75581 -36.6481 0 
6777 701 12 -5.76399 -2.78971 -36.1748 0 
6778 701 12 -6.95241 -2.04826 -33.9576 0 
6779 701 12 -6.95571 -0.480035 -36.2937 0 
6781 701 12 -3.28523 -2.77958 -36.2945 0 
6783 701 12 -4.50418 -0.501706 -36.4633 0 
6785 701 12 -0.806007 -2.79075 -36.3411 0 
6786 701 12 -2.07967 -1.99276 -33.5531 0 
6787 701 12 -2.02998 -0.498603 -36.3694 0 
6598 701 12 -15.0378 -15.5031 -31.7786 0 
6600 701 12 -13.4045 -13.2404 -32.0798 0 
6606 701 12 -9.94849 -15.509 -32.0137 0 
6650 701 12 -16.2388 -11.0574 -31.6996 0 
6658 701 12 -11.8821 -10.9885 -31.8706 0 
6992 701 12 -13.3038 -17.5868 -32.2621 0 
2884 152 7 -15.5992 -11.445 -28.5338 0.13 
2872 152 1 -13.8651 -11.8973 -27.5805 0.15 
2877 152 4 -14.8537 -12.1608 -28.6562 -0.17 
2885 152 7 -14.5683 -12.035 -29.7105 0.13 
2874 152 3 -11.9933 -11.1711 -26.7379 -0.13 
2883 152 8 -15.6116 -13.4965 -28.4861 -0.05 
2873 152 3 -12.7387 -11.1026 -27.8169 -0.13 
2878 152 6 -12.5945 -10.5421 -28.7466 0.21 
4940 272 10 -10.4302 -15.0229 -26.2185 0.96 
2871 152 2 -13.5831 -12.6381 -26.4545 -0.11 
2879 152 6 -11.0926 -10.6584 -26.3733 0.21 
4941 272 11 -9.90846 -14.3817 -27.3361 -0.49 
4944 272 11 -11.8321 -15.1917 -26.2721 -0.49 
2888 152 9 -16.2886 -13.6803 -29.3413 0.06 
2886 152 9 -14.9658 -14.4171 -28.3457 0.06 
2870 152 1 -12.514 -12.1719 -25.9113 0.15 
1269 67 7 -15.2588 -16.9359 -27.4405 0.13 
2887 152 9 -16.235 -13.5307 -27.5979 0.06 
2876 152 5 -14.249 -13.4514 -26.1026 0.21 
1268 67 8 -14.6814 -16.7879 -25.2157 -0.05 
4943 272 11 -10.0677 -14.2519 -25.1484 -0.49 
4942 272 11 -9.9311 -16.245 -26.2504 -0.49 
4484 236 9 -9.5689 -17.9676 -30.7053 0.06 
1262 67 4 -15.2235 -17.4692 -26.4444 -0.17 
640 34 7 -13.9229 -9.77879 -25.6804 0.13 
1270 67 7 -16.3066 -17.3749 -26.3222 0.13 
1273 67 9 -13.5819 -16.7816 -25.3549 0.06 
5112 306 11 -16.6157 -11.0408 -25.6885 -0.49 
1510 80 6 -10.8157 -18.1722 -25.6345 0.21 
5114 306 11 -16.4133 -13.101 -25.0111 -0.49 
1383 73 7 -1.52227 -15.6287 -25.4333 0.13 
4474 236 6 -7.87797 -17.6285 -26.3625 0.21 
1381 73 7 -3.75819 -12.79 -29.4295 0.13 
4229 223 7 -6.24435 -12.5739 -29.5635 0.13 
4231 223 7 -5.76233 -11.121 -29.2169 0.13 
4224 223 4 -6.39266 -11.9237 -28.7761 -0.17 
4230 223 7 -7.38585 -11.3763 -28.7773 0.13 
4228 223 6 -4.59224 -10.7877 -26.8636 0.21 
1377 73 6 -0.679628 -12.3357 -25.4377 0.21 
4219 223 1 -5.88972 -12.4133 -27.4861 0.15 
5348 353 11 -3.01507 -17.2793 -28.8529 -0.49 
6608 701 12 -8.6538 -13.2727 -33.0057 0 
6610 701 12 -7.28913 -15.4978 -33.1723 0 
6612 701 12 -5.89144 -13.3238 -32.4271 0 
6618 701 12 -2.14314 -15.5654 -32.4952 0 
6620 701 12 -0.837114 -13.2723 -32.8556 0 
6670 701 12 -4.54664 -10.9592 -32.3239 0 
7000 701 12 -8.45775 -17.8132 -33.2324 0 
7004 701 12 -5.8742 -17.8101 -33.1078 0 
4220 223 2 -6.39211 -13.5336 -26.9079 -0.11 
4225 223 5 -7.15937 -14.2617 -27.4071 0.21 
5345 353 10 -4.44279 -17.3393 -28.9016 0.96 
1373 73 3 -1.73345 -12.1144 -27.3674 -0.13 
5347 353 11 -4.99685 -16.5167 -29.8524 -0.49 
5346 353 11 -4.9783 -17.1304 -27.5735 -0.49 
4480 236 7 -8.65918 -17.3575 -28.5248 0.13 
4223 223 3 -5.08183 -11.7564 -26.557 -0.13 
1371 73 1 -0.999469 -14.0663 -26.7434 0.15 
1372 73 3 -1.03918 -12.7358 -26.3863 -0.13 
1378 73 6 -1.89575 -11.0105 -27.3923 0.21 
4222 223 3 -5.2174 -12.3531 -25.3206 -0.13 
4221 223 1 -6.0226 -13.4389 -25.5996 0.15 
1370 73 2 -1.45144 -14.2142 -27.9757 -0.11 
1374 73 4 -2.5997 -12.696 -29.4942 -0.17 
1369 73 1 -1.98495 -13.0588 -28.3088 0.15 
1379 73 7 -2.34516 -11.6816 -29.7781 0.13 
263 14 7 -2.09724 -17.6948 -25.9442 0.13 
1380 73 7 -2.25691 -13.3104 -30.3505 0.13 
4481 236 7 -7.3564 -17.7352 -29.5167 0.13 
1376 73 4 -0.630094 -15.2022 -25.7948 -0.17 
1375 73 5 -1.3936 -15.263 -28.4067 0.21 
4473 236 4 -8.17132 -18.2098 -29.0416 -0.17 
209 11 9 -3.42324 -9.45558 -25.1019 0.06 
4328 228 7 -15.4323 -4.77018 -30.0717 0.13 
5626 409 11 -10.3096 -2.44155 -25.7277 -0.49 
4876 259 11 -15.5244 -5.72733 -25.8614 -0.49 
4879 259 11 -16.2671 -3.58809 -25.4488 -0.49 
4330 228 9 -15.9391 -2.54489 -29.5811 0.06 
1110 59 4 -14.7065 -0.490576 -25.0758 -0.17 
1121 59 9 -14.518 -0.58524 -27.3789 0.06 
5933 470 11 -10.154 -8.58881 -29.0515 -0.49 
5932 470 11 -11.9719 -7.63534 -28.1332 -0.49 
5934 470 11 -10.0106 -7.57184 -27.0703 -0.49 
639 34 7 -13.4317 -8.4641 -26.6672 0.13 
633 34 4 -13.9942 -8.69965 -25.7958 -0.17 
5930 470 10 -10.5937 -7.51127 -28.3278 0.96 
4322 228 6 -13.6572 -5.73025 -27.0787 0.21 
5931 470 11 -10.2418 -6.29061 -28.9482 -0.49 
4323 228 6 -11.4454 -4.40047 -26.6222 0.21 
4317 228 3 -13.2536 -4.93945 -27.6792 -0.13 
4316 228 1 -14.0288 -4.18835 -28.6097 0.15 
6656 701 12 -13.5711 -8.6822 -32.0558 0 
6706 701 12 -16.3909 -6.49 -32.1137 0 
6712 701 12 -13.2369 -4.33438 -32.6286 0 
6714 701 12 -11.7781 -6.52139 -31.9082 0 
6716 701 12 -10.7472 -4.29361 -33.2868 0 
6762 701 12 -16.7871 -1.88304 -32.4602 0 
6770 701 12 -11.9485 -1.93979 -32.8634 0 
4320 228 5 -13.7103 -2.54769 -29.8677 0.21 
4315 228 2 -13.3399 -3.22827 -29.0545 -0.11 
4321 228 4 -15.3728 -4.48055 -29.0314 -0.17 
4314 228 1 -12.0878 -3.35856 -28.582 0.15 
4318 228 3 -12.0942 -4.27088 -27.5222 -0.13 
4319 228 4 -11.0079 -2.32403 -28.8514 -0.17 
4324 228 7 -10.865 -1.68792 -27.9856 0.13 
4326 228 7 -11.0689 -1.75445 -29.7346 0.13 
4325 228 7 -10.1335 -2.94157 -28.8198 0.13 
4332 228 9 -16.2722 -2.91429 -27.8717 0.06 
5625 409 10 -9.09527 -2.95605 -25.2476 0.96 
4327 228 8 -16.2182 -3.27163 -28.8791 -0.05 
1116 59 8 -13.9103 -0.82426 -26.3902 -0.05 
637 34 6 -11.9542 -6.90507 -25.8227 0.21 
4329 228 7 -15.7372 -5.1513 -28.3724 0.13 
638 34 7 -15.0334 -8.55791 -25.8619 0.13 
1120 59 9 -13.752 -1.94141 -26.3489 0.06 
1117 59 7 -15.6114 -1.17909 -25.1384 0.13 
4331 228 9 -17.2548 -3.47265 -29.2634 0.06 
1119 59 9 -12.968 -0.276582 -26.341 0.06 
1976 104 9 -16.9928 -8.746 -27.9621 0.06 
3644 192 7 -3.70588 -0.982537 -25.0207 0.13 
5811 446 11 -4.87361 -8.82517 -29.2962 -0.49 
2405 127 7 -8.34187 -8.25421 -25.2413 0.13 
5813 446 11 -4.20111 -8.56281 -27.1375 -0.49 
735 39 7 -2.34051 -6.77018 -25.9867 0.13 
189 10 9 -0.557036 -9.2103 -29.8303 0.06 
5629 409 11 -8.62129 -3.7491 -26.1813 -0.49 
2404 127 6 -7.72407 -8.3478 -27.6026 0.21 
2411 127 9 -6.52136 -4.49999 -30.6848 0.06 
5814 446 11 -2.73155 -8.64275 -28.7619 -0.49 
2413 127 9 -6.38185 -2.79467 -30.0829 0.06 
6724 701 12 -5.73682 -4.29794 -33.0475 0 
2402 127 4 -6.1696 -4.17783 -28.3427 -0.17 
5810 446 10 -3.96998 -8.15773 -28.479 0.96 
6732 701 12 -0.856774 -4.29082 -33.2302 0 
6726 701 12 -4.54781 -6.63339 -32.8661 0 
736 39 8 -0.386978 -3.1259 -29.8716 -0.05 
737 39 7 -1.61034 -2.24142 -28.2729 0.13 
729 39 5 -1.9913 -5.13282 -27.8342 0.21 
724 39 2 -1.0865 -4.78651 -27.3 -0.11 
741 39 9 -1.27774 -3.51072 -30.3199 0.06 
2412 127 9 -7.83737 -3.73575 -29.7573 0.06 
2396 127 2 -6.31016 -5.70304 -26.4102 -0.11 
2399 127 3 -7.25565 -7.3716 -27.4871 -0.13 
6676 701 12 -0.78993 -8.84827 -33.1854 0 
2400 127 4 -7.64597 -7.39898 -25.0242 -0.17 
5812 446 11 -3.89365 -6.78497 -28.4985 -0.49 
2403 127 6 -6.56726 -6.67797 -29.4766 0.21 
730 39 4 -0.593186 -2.60989 -28.4349 -0.17 
2401 127 5 -6.03163 -5.03905 -25.6108 0.21 
733 39 7 -0.889002 -7.64354 -25.8268 0.13 
2409 127 7 -6.57666 -3.47676 -27.7016 0.13 
6664 701 12 -8.46652 -8.74664 -32.3086 0 
723 39 1 -0.529393 -5.57801 -26.3646 0.15 
2397 127 1 -6.2762 -5.42481 -27.7431 0.15 
6782 701 12 -4.55208 -1.95692 -32.8039 0 
728 39 4 -1.28267 -6.64522 -25.6882 -0.17 
2398 127 3 -6.66089 -6.60559 -28.4097 -0.13 
6720 701 12 -8.2588 -4.3051 -32.8926 0 
2410 127 7 -5.1172 -4.06447 -28.3999 0.13 
2408 127 8 -6.69286 -3.83313 -29.7719 -0.05 
2395 127 1 -6.8879 -6.90734 -26.1932 0.15 
725 39 1 -0.383991 -3.68182 -27.4338 0.15 
3638 192 6 -3.53296 -0.296688 -27.7683 0.21 
3633 192 3 -4.61586 -0.389781 -27.5332 -0.13 
858 46 1 -10.3613 -11.8045 -19.4509 0.15 
871 46 7 -10.2879 -13.0061 -21.0195 0.13 
863 46 4 -11.0635 -12.5684 -20.535 -0.17 
869 46 8 -12.0386 -13.7623 -20.2058 -0.05 
874 46 9 -11.553 -14.6819 -19.6878 0.06 
4813 254 4 -16.1838 -14.2289 -21.5519 -0.17 
5110 306 10 -16.425 -11.7697 -24.5234 0.96 
872 46 9 -12.8072 -13.2712 -19.7506 0.06 
870 46 7 -11.4845 -11.9395 -21.3371 0.13 
857 46 2 -9.77809 -10.6556 -19.4853 -0.11 
4808 254 1 -15.635 -15.4116 -20.7979 0.15 
873 46 9 -12.2568 -14.288 -21.1285 0.06 
4812 254 3 -14.7665 -16.3514 -21.3389 -0.13 
6125 509 10 -14.5483 -11.2712 -18.6761 0.96 
4817 254 6 -14.723 -16.3921 -22.3394 0.21 
4811 254 3 -14.0216 -16.852 -20.3385 -0.13 
4818 254 7 -15.3902 -13.6043 -21.9085 0.13 
4809 254 2 -15.3762 -15.3321 -19.4853 -0.11 
4814 254 5 -15.8483 -14.5821 -18.8535 0.21 
4810 254 1 -14.6319 -16.369 -19.1669 0.15 
6128 509 11 -14.8267 -11.6921 -19.9849 -0.49 
4816 254 6 -13.1269 -17.4427 -20.4033 0.21 
5113 306 11 -15.1565 -11.5273 -23.9564 -0.49 
4819 254 7 -16.7457 -14.4397 -22.4553 0.13 
4820 254 7 -16.997 -13.7303 -20.9711 0.13 
862 46 5 -9.87744 -9.97361 -20.2865 0.21 
6126 509 11 -14.9451 -9.97334 -18.5882 -0.49 
1518 80 9 -11.3895 -16.1155 -23.7063 0.06 
1520 80 9 -10.4231 -15.315 -22.4976 0.06 
1519 80 9 -11.3339 -16.7489 -22.0644 0.06 
1515 80 8 -10.7904 -16.2365 -22.8097 -0.05 
1509 80 4 -9.66202 -17.1264 -23.1943 -0.17 
856 46 1 -9.14709 -10.3325 -18.3429 0.15 
859 46 3 -10.0917 -12.2823 -18.1825 -0.13 
860 46 3 -9.3883 -11.34 -17.4978 -0.13 
6127 509 11 -15.2429 -12.0699 -17.8185 -0.49 
864 46 6 -10.538 -13.0831 -17.7426 0.21 
2880 152 7 -10.9357 -12.0228 -24.3642 0.13 
5492 382 11 -10.3668 -17.065 -19.4662 -0.49 
5490 382 10 -9.10655 -16.5841 -19.1716 0.96 
1517 80 7 -9.08061 -16.5477 -23.8956 0.13 
1516 80 7 -9.10174 -17.2546 -22.3125 0.13 
5494 382 11 -9.23784 -15.5549 -18.2182 -0.49 
4348 229 7 -16.8172 -10.6882 -20.287 0.13 
5387 361 11 -9.49172 -10.9364 -22.3376 -0.49 
4825 254 9 -12.5579 -15.8152 -17.7647 0.06 
6129 509 11 -13.1242 -11.2991 -18.3346 -0.49 
4815 254 4 -14.5006 -16.8514 -17.7642 -0.17 
4823 254 7 -14.7006 -17.9488 -17.8017 0.13 
4822 254 7 -15.3003 -16.4023 -17.131 0.13 
4821 254 8 -13.1579 -16.5641 -17.2405 -0.05 
4824 254 9 -12.586 -17.5272 -17.4517 0.06 
2875 152 4 -11.9995 -12.1708 -24.5207 -0.17 
985 52 7 -16.9877 -16.9931 -23.3744 0.13 
2882 152 7 -12.1925 -13.0565 -23.8838 0.13 
2881 152 7 -12.4743 -11.354 -23.9934 0.13 
1272 67 9 -14.7623 -17.4879 -24.4205 0.06 
988 52 9 -16.6617 -18.1634 -21.328 0.06 
1271 67 9 -15.189 -15.8125 -24.9471 0.06 
5491 382 11 -8.57526 -16.04 -20.2737 -0.49 
5385 361 10 -8.48146 -10.1114 -22.6466 0.96 
5389 361 11 -7.36254 -10.3432 -21.8468 -0.49 
5493 382 11 -8.34778 -17.6757 -18.7306 -0.49 
266 14 9 -2.64313 -17.2288 -23.7416 0.06 
4232 223 8 -7.16024 -13.4762 -23.4508 -0.05 
5755 435 10 -3.10448 -13.8982 -22.3193 0.96 
4200 222 1 -6.03325 -12.6359 -18.898 0.15 
4204 222 3 -5.11449 -11.8004 -19.4454 -0.13 
4209 222 6 -4.9595 -11.837 -20.5101 0.21 
4205 222 4 -7.00635 -13.4652 -19.6118 -0.17 
5758 435 11 -2.51528 -15.1214 -22.656 -0.49 
5757 435 11 -2.51229 -13.5856 -21.1293 -0.49 
5756 435 11 -4.40862 -13.9851 -21.9943 -0.49 
5759 435 11 -2.82781 -12.8228 -23.1452 -0.49 
3197 169 3 -4.64362 -16.8918 -20.4917 -0.13 
3202 169 6 -4.57744 -16.2386 -21.3977 0.21 
4211 222 7 -7.73436 -13.9203 -18.9486 0.13 
4212 222 7 -7.60993 -12.8123 -20.2936 0.13 
3193 169 1 -3.91126 -16.5868 -19.3174 0.15 
3198 169 4 -3.2182 -15.4217 -18.8961 -0.17 
3204 169 7 -2.96196 -15.3453 -17.824 0.13 
4236 223 9 -8.02257 -12.9248 -23.9057 0.06 
3205 169 7 -2.27285 -15.312 -19.3455 0.13 
206 11 7 -5.02001 -9.85183 -23.0731 0.13 
4203 222 3 -4.54245 -11.059 -18.4594 -0.13 
4226 223 4 -6.45017 -14.3637 -24.4868 -0.17 
4235 223 9 -6.56901 -12.8132 -22.8214 0.06 
198 11 4 -4.00828 -9.63081 -22.8481 -0.17 
4237 223 9 -7.66366 -14.1684 -22.796 0.06 
3194 169 2 -4.19211 -17.4709 -18.3909 -0.11 
4208 222 6 -3.77762 -10.302 -18.3605 0.21 
205 11 7 -3.5706 -10.6339 -22.6166 0.13 
4234 223 7 -5.64217 -14.8985 -23.9377 0.13 
3203 169 7 -3.841 -14.5688 -19.0854 0.13 
3850 203 7 -0.379683 -12.4472 -21.947 0.13 
4233 223 7 -7.05499 -15.198 -24.9063 0.13 
3199 169 5 -3.65821 -17.5698 -17.415 0.21 
5388 361 11 -8.02385 -10.3062 -23.8824 -0.49 
4227 223 6 -4.80312 -12.11 -24.3729 0.21 
4210 222 7 -6.45681 -14.144 -20.1909 0.13 
4201 222 2 -5.95275 -12.4073 -17.6749 -0.11 
4202 222 1 -5.12246 -11.4265 -17.3715 0.15 
4206 222 5 -6.45981 -12.8924 -16.8467 0.21 
3196 169 3 -5.46807 -17.9726 -20.1114 -0.13 
3841 203 1 -0.301246 -13.4186 -17.8567 0.15 
5701 424 11 -1.00328 -17.8505 -17.1115 -0.49 
3840 203 2 -0.425024 -12.3552 -18.654 -0.11 
3845 203 5 -0.537779 -11.3268 -18.272 0.21 
3851 203 7 -0.785067 -10.9789 -21.0332 0.13 
3839 203 1 -0.244392 -12.725 -19.9043 0.15 
261 14 8 -2.80467 -18.2797 -23.9923 -0.05 
645 34 9 -13.4543 -8.92416 -20.5127 0.06 
646 34 9 -14.1964 -7.64101 -19.4424 0.06 
4341 229 6 -17.1759 -8.74079 -17.9126 0.21 
632 34 3 -12.2796 -7.12997 -24.7898 -0.13 
5386 361 11 -8.76073 -8.65202 -22.5729 -0.49 
643 34 7 -13.7028 -6.11594 -21.2558 0.13 
642 34 7 -12.1818 -6.80663 -20.798 0.13 
634 34 5 -14.388 -8.69627 -22.954 0.21 
644 34 9 -14.9229 -8.29851 -20.8134 0.06 
629 34 2 -13.5932 -8.10739 -23.4046 -0.11 
630 34 1 -12.859 -7.27555 -22.6677 0.15 
635 34 4 -13.1791 -6.98385 -21.3114 -0.17 
636 34 6 -11.5166 -5.71902 -23.2699 0.21 
631 34 3 -12.0076 -6.63303 -23.5518 -0.13 
641 34 8 -13.9418 -8.02095 -20.446 -0.05 
5210 326 10 -11.9284 -4.35567 -18.4314 0.96 
5213 326 11 -10.9463 -4.92578 -19.1954 -0.49 
1105 59 1 -14.0116 -0.962313 -23.8672 0.15 
1106 59 3 -13.2864 -2.14537 -23.6924 -0.13 
1107 59 3 -13.2081 -2.34777 -22.3723 -0.13 
5212 326 11 -12.0592 -5.14192 -17.2572 -0.49 
1111 59 6 -13.0813 -2.86561 -24.4835 0.21 
5214 326 11 -11.4557 -3.08812 -18.1333 -0.49 
1112 59 6 -12.8742 -3.12462 -21.6666 0.21 
628 34 1 -13.3037 -8.06991 -24.6649 0.15 
5211 326 11 -13.1928 -4.28956 -19.0317 -0.49 
1855 98 7 -9.20963 -1.0797 -17.9348 0.13 
868 46 7 -9.04774 -8.39714 -18.8808 0.13 
866 46 7 -9.03183 -8.49322 -17.1724 0.13 
4878 259 11 -15.4423 -4.81986 -23.8052 -0.49 
1861 98 9 -8.92865 -5.04676 -21.7518 0.06 
4343 229 7 -17.0659 -4.62355 -20.973 0.13 
5628 409 11 -9.38441 -3.76126 -24.1172 -0.49 
1108 59 4 -14.1956 -1.25466 -20.3636 -0.17 
923 49 7 -12.0599 -0.896386 -17.2466 0.13 
1113 59 7 -15.068 -1.85883 -20.1724 0.13 
1104 59 2 -14.3628 -0.496543 -22.7181 -0.11 
1103 59 1 -13.9482 -1.26753 -21.7624 0.15 
4875 259 10 -16.2139 -4.8823 -24.9711 0.96 
1114 59 7 -13.3739 -1.70482 -19.7786 0.13 
734 39 7 -1.32957 -6.41457 -24.6271 0.13 
207 11 9 -3.91961 -7.94472 -24.3993 0.06 
208 11 9 -2.42135 -8.73746 -23.8404 0.06 
204 11 8 -3.48124 -8.87892 -24.1541 -0.05 
5790 442 10 -0.38962 -2.93203 -17.2547 0.96 
1064 56 9 -3.97107 -0.265946 -20.8336 0.06 
1849 98 4 -8.16867 -1.44653 -17.8671 -0.17 
1844 98 1 -7.7423 -2.26055 -19.0608 0.15 
1848 98 3 -7.94242 -1.85645 -20.359 -0.13 
1853 98 6 -8.33333 -0.888951 -20.6681 0.21 
861 46 4 -8.65663 -9.0189 -18.0433 -0.17 
867 46 7 -7.59411 -9.14751 -17.9732 0.13 
1854 98 7 -7.53761 -0.490502 -17.8333 0.13 
1847 98 3 -7.51273 -2.87385 -21.1377 -0.13 
1852 98 6 -7.60846 -2.93334 -22.238 0.21 
1858 98 7 -5.94724 -5.4001 -21.258 0.13 
5788 441 11 -1.47945 -9.1588 -17.617 -0.49 
5126 309 11 -3.78883 -3.33319 -22.8223 -0.49 
1856 98 7 -7.98706 -1.94976 -16.8778 0.13 
1845 98 2 -7.48886 -3.50666 -19.1292 -0.11 
1850 98 5 -7.51402 -4.15132 -18.2567 0.21 
1846 98 1 -7.08549 -3.91341 -20.3372 0.15 
1859 98 7 -7.04648 -5.99473 -20.1239 0.13 
1851 98 4 -6.90296 -5.26502 -20.8913 -0.17 
197 11 5 -2.08553 -7.91362 -21.7709 0.21 
196 11 4 -2.4533 -6.28024 -19.5571 -0.17 
202 11 7 -2.51214 -5.45834 -20.1765 0.13 
1860 98 9 -8.15388 -6.56525 -22.1023 0.06 
5125 309 10 -3.16275 -4.00027 -23.8405 0.96 
1857 98 8 -7.91065 -5.54227 -21.9363 -0.05 
1862 98 9 -7.5465 -5.2842 -22.962 0.06 
191 11 1 -3.23827 -7.38405 -20.1111 0.15 
192 11 2 -3.01798 -8.0096 -21.2408 -0.11 
199 11 6 -5.97713 -9.14241 -20.6921 0.21 
195 11 3 -4.54311 -7.83364 -19.6964 -0.13 
200 11 6 -5.19431 -7.38198 -18.9492 0.21 
194 11 3 -4.96219 -8.74528 -20.6366 -0.13 
193 11 1 -3.9521 -8.87698 -21.5526 0.15 
5912 466 11 -4.58377 -5.81239 -17.1728 -0.49 
5791 442 11 -1.20149 -3.81797 -17.9575 -0.49 
5129 309 11 -2.37803 -5.00734 -23.25 -0.49 
1061 56 7 -3.40456 -1.72628 -18.7422 0.13 
1053 56 4 -3.68966 -0.719509 -18.6638 -0.17 
5914 466 11 -6.69623 -6.2779 -17.4763 -0.49 
203 11 7 -2.59703 -6.06433 -18.5254 0.13 
2406 127 7 -6.94888 -7.80961 -24.2811 0.13 
5128 309 11 -2.3973 -3.0251 -24.5 -0.49 
1062 56 9 -5.44852 -0.650334 -20.0422 0.06 
5127 309 11 -3.99832 -4.49151 -24.8105 -0.49 
201 11 7 -1.36383 -6.43667 -19.5217 0.13 
5627 409 11 -8.09198 -2.03476 -24.9192 -0.49 
1048 56 1 -4.48215 -0.67423 -17.3871 0.15 
3643 192 8 -5.42075 -0.475832 -23.8812 -0.05 
3647 192 9 -4.76281 -0.741201 -23.0384 0.06 
2407 127 7 -8.17127 -6.60212 -24.6848 0.13 
3646 192 9 -6.03711 -1.30447 -24.1335 0.06 
4789 253 1 -10.0487 -18.2355 -14.014 0.15 
4798 253 6 -9.70672 -18.0276 -16.1165 0.21 
1702 90 7 -12.6841 -18.1572 -11.143 0.13 
4795 253 5 -10.0186 -17.6603 -12.0128 0.21 
4973 278 11 -15.857 -13.3277 -9.64624 -0.49 
4267 225 7 -17.0848 -10.4744 -8.4779 0.13 
892 47 9 -14.2283 -12.6266 -13.3847 0.06 
890 47 7 -12.778 -12.047 -15.8895 0.13 
891 47 9 -12.5293 -12.54 -13.5517 0.06 
882 47 4 -13.5446 -11.8545 -15.2198 -0.17 
888 47 8 -13.4758 -12.8726 -14.1163 -0.05 
893 47 9 -13.4882 -13.8399 -14.5937 0.06 
4791 253 1 -9.08844 -16.4135 -13.4022 0.15 
4802 253 8 -9.08876 -13.9454 -12.6244 -0.05 
4807 253 9 -9.03421 -13.7231 -13.6864 0.06 
883 47 6 -14.5481 -10.6337 -12.7011 0.21 
4826 254 9 -13.1805 -16.5135 -16.1837 0.06 
889 47 7 -14.5548 -12.0078 -15.6403 0.13 
877 47 1 -13.4872 -10.4746 -14.6352 0.15 
878 47 3 -14.0333 -10.0429 -13.3801 -0.13 
4971 278 11 -16.0989 -12.1222 -11.4325 -0.49 
4974 278 11 -15.7365 -14.3652 -11.7254 -0.49 
4790 253 2 -9.73949 -17.5227 -13.0122 -0.11 
5568 397 11 -10.0108 -11.3604 -13.9492 -0.49 
4970 278 10 -15.3718 -13.2015 -10.9403 0.96 
4806 253 9 -8.82631 -13.2574 -11.8485 0.06 
865 46 6 -9.22498 -11.2054 -16.378 0.21 
3133 165 9 -11.0087 -12.9934 -9.42221 0.06 
4805 253 9 -10.2204 -14.062 -12.4816 0.06 
4972 278 11 -13.9859 -12.9683 -10.9178 -0.49 
876 47 2 -13.2703 -9.40849 -15.3327 -0.11 
881 47 5 -12.8796 -9.33882 -16.3135 0.21 
5565 397 10 -8.86801 -10.6586 -13.884 0.96 
5567 397 11 -8.9652 -9.5245 -14.69 -0.49 
3132 165 7 -12.0743 -10.8379 -9.16942 0.13 
3130 165 8 -11.0651 -12.6861 -8.35178 -0.05 
4792 253 3 -8.97281 -16.4316 -14.7348 -0.13 
1694 90 1 -16.2013 -17.4644 -9.23028 0.15 
1704 90 7 -12.1837 -16.8813 -10.0217 0.13 
1703 90 7 -13.0155 -16.5474 -11.5071 0.13 
1693 90 2 -15.1925 -16.7431 -9.61955 -0.11 
1698 90 5 -15.1299 -15.6246 -9.72954 0.21 
2975 157 7 -16.6414 -15.8802 -13.2642 0.13 
1692 90 1 -14.2332 -17.6171 -9.95305 0.15 
1697 90 4 -12.9757 -17.2568 -10.6009 -0.17 
4793 253 3 -9.58864 -17.5494 -15.1242 -0.13 
1146 61 4 -6.29407 -18.2156 -12.8272 -0.17 
1151 61 7 -6.22654 -17.3614 -13.4905 0.13 
4961 276 11 -8.23858 -17.6958 -10.136 -0.49 
5785 441 10 -0.842297 -9.3077 -16.3668 0.96 
5786 441 11 -1.61001 -10.0103 -15.4449 -0.49 
4796 253 4 -8.59465 -15.3111 -12.4773 -0.17 
4803 253 7 -8.65132 -15.7344 -11.456 0.13 
4463 235 9 -1.01336 -16.6259 -12.5359 0.06 
4804 253 7 -7.52692 -15.1042 -12.6987 0.13 
4797 253 6 -8.44493 -15.6824 -15.2044 0.21 
2862 151 7 -6.68097 -10.8107 -11.5106 0.13 
5462 376 11 -3.78396 -16.2101 -15.3761 -0.49 
5463 376 11 -5.87668 -15.3307 -15.6381 -0.49 
5464 376 11 -4.06413 -13.9542 -15.3504 -0.49 
2851 151 1 -5.12265 -11.8653 -10.5345 0.15 
5460 376 10 -4.62746 -15.1748 -14.9859 0.96 
5461 376 11 -4.87837 -15.1886 -13.6045 -0.49 
2855 151 3 -4.21017 -12.902 -10.7658 -0.13 
2860 151 6 -3.92988 -13.2211 -11.6993 0.21 
2856 151 4 -5.64737 -11.0518 -11.6496 -0.17 
2863 151 7 -5.08115 -10.1513 -11.8192 0.13 
2854 151 3 -3.94144 -13.436 -9.60264 -0.13 
2859 151 6 -3.26774 -14.2839 -9.41732 0.21 
2852 151 2 -5.17419 -11.6027 -9.21902 -0.11 
5147 313 11 -1.85747 -15.9406 -8.71784 -0.49 
4207 222 4 -4.88666 -10.7576 -16.0303 -0.17 
4215 222 7 -4.08632 -11.3653 -15.556 0.13 
2857 151 5 -5.77931 -10.81 -8.68877 0.21 
2853 151 1 -4.61039 -12.655 -8.65589 0.15 
2861 151 7 -5.53494 -11.5908 -12.5909 0.13 
4214 222 7 -5.67407 -11.1029 -15.4284 0.13 
700 37 7 -0.255673 -12.7361 -10.5599 0.13 
1153 61 7 -6.58226 -17.9268 -11.8172 0.13 
5569 397 11 -8.71409 -10.2669 -12.5896 -0.49 
5566 397 11 -7.82808 -11.501 -14.3123 -0.49 
691 37 5 -0.733284 -9.49993 -9.21199 0.21 
4213 222 8 -4.54724 -9.31854 -15.8451 -0.05 
3853 203 7 -0.996965 -12.4996 -16.1632 0.13 
3846 203 4 -0.353069 -13.3899 -16.4081 -0.17 
3854 203 7 -0.940911 -14.3208 -16.1195 0.13 
1150 61 6 -3.48215 -17.7779 -13.387 0.21 
703 37 9 -1.52709 -10.328 -11.8425 0.06 
702 37 9 -2.06644 -11.3118 -10.5786 0.06 
701 37 9 -1.76227 -11.935 -12.1353 0.06 
698 37 8 -1.38904 -11.3042 -11.4036 -0.05 
3210 169 9 -6.4522 -18.2731 -16.6603 0.06 
4996 283 11 -16.4868 -6.377 -16.1234 -0.49 
918 49 4 -12.738 -0.354883 -16.6348 -0.17 
965 51 7 -15.08 -0.440028 -10.2301 0.13 
919 49 5 -13.6604 -3.21022 -16.2093 0.21 
5392 362 11 -8.83801 -1.36217 -14.6287 -0.49 
2571 136 4 -17.0283 -6.5997 -11.0082 -0.17 
2575 136 6 -16.3181 -9.21465 -11.0467 0.21 
916 49 3 -15.9885 -1.10198 -15.4692 -0.13 
927 49 7 -16.9988 -3.76706 -15.1145 0.13 
879 47 3 -14.0675 -8.72421 -13.3411 -0.13 
884 47 6 -14.6155 -8.11454 -12.6355 0.21 
928 49 7 -15.462 -4.51574 -15.1004 0.13 
929 49 9 -15.1173 -2.91803 -12.8313 0.06 
930 49 9 -16.941 -2.70659 -12.8907 0.06 
926 49 8 -16.0477 -3.33779 -13.1883 -0.05 
887 47 7 -13.238 -6.19414 -14.2137 0.13 
2810 148 9 -11.9053 -2.72554 -14.522 0.06 
886 47 7 -14.3605 -6.56048 -15.5572 0.13 
885 47 7 -12.5931 -7.08113 -15.851 0.13 
880 47 4 -13.3949 -6.88673 -15.0761 -0.17 
875 47 1 -13.5153 -8.30462 -14.5474 0.15 
5420 368 10 -13.6877 -5.44681 -10.1571 0.96 
5423 368 11 -14.021 -5.71032 -11.4494 -0.49 
2811 148 9 -12.2963 -4.11255 -13.3232 0.06 
2807 148 8 -11.5572 -3.51306 -13.8826 -0.05 